LAMMPS (16 Feb 2016)
WARNING: OMP_NUM_THREADS environment is not set. (../comm.cpp:90)
  using 1 OpenMP thread(s) per MPI task

# Deforming a Nanowire.
# Suman Kandel, Dr. Mark A. Tschopp, 2011.

# ------------------------ INITIALIZATION ----------------------------
units        metal
boundary     p p p

atom_style   atomic


# ----------------------- ATOM DEFINITION ----------------------------
lattice hcp 3.20
Lattice spacing in x,y,z = 3.2 5.54256 5.22558
region whole block 0  100 0 100 0 100 units box
create_box 1 whole
Created orthogonal box = (0 0 0) to (100 100 100)
  2 by 2 by 7 MPI processor grid
region LLF cylinder z  50 50 20  INF INF  units box
lattice hcp 3.20 orient x 1 0 0 orient y 0 1 0 orient z 0 0 1
Lattice spacing in x,y,z = 3.2 5.54256 5.22558
create_atoms 1 region LLF
Created 5538 atoms
#delete_atoms overlap 0.5 all all

# ------------------------ FORCE FIELDS ------------------------------
pair_style   meam
pair_coeff   * * library.meam Cu Cu.meam Cu
Reading potential file library.meam with DATE: 2012-06-29
Reading potential file Cu.meam with DATE: 2007-06-11

# ------------------------- SETTINGS ---------------------------------
#### Computes Required
compute csym all centro/atom 12
compute 2 all stress/atom NULL
compute mytemp all temp
compute 11 all reduce sum c_2[1]
compute 12 all reduce sum c_2[2]
compute 13 all reduce sum c_2[3]
compute 14 all reduce sum c_2[4]
compute 15 all reduce sum c_2[5]
compute 16 all reduce sum c_2[6]

neighbor     0.3 bin
neigh_modify delay 10
thermo 100
velocity all create 100.0 16723
thermo_style custom step temp etotal press pxx pyy pzz lx ly lz
shell mkdir dump
WARNING: Shell command 'mkdir' failed with error 'File exists' (../input.cpp:1126)
shell cd dump

#---------------Energy Equilibriation--------------------------
reset_timestep 0
fix 1 all nve
fix 2 all temp/rescale 10 100.0 100.0 1.0 0.5
dump 1 all custom 10000 dump.equilibrate.* id type x y z

run 10000
Neighbor list info ...
  3 neighbor list requests
  update every 1 steps, delay 10 steps, check yes
  max neighbors/atom: 2000, page size: 100000
  master list distance cutoff = 4.3
  ghost atom cutoff = 4.3
  binsize = 2.15 -> bins = 47 47 47
Memory usage per processor = 8.766 Mbytes
Step Temp TotEng Press Pxx Pyy Pzz Lx Ly Lz 
       0          100    74533.891    126282.18   -21961.071   -22040.494    422848.11          100          100          100 
     100    328.52595   -12542.697   -12626.862   -11794.071   -11849.771   -14236.744          100          100          100 
     200    183.44143   -13462.927   -13991.587   -12634.268   -12743.661    -16596.83          100          100          100 
     300    172.52322   -14022.164   -10739.972   -9439.8075   -9351.9381    -13428.17          100          100          100 
     400    165.24783    -14512.22   -7941.3567   -6620.3902   -6619.1806   -10584.499          100          100          100 
     500    153.23878   -14938.652   -6281.6176   -4994.3211   -4953.5062   -8897.0254          100          100          100 
     600    139.23132   -15259.589   -5168.7032   -4023.2793   -4053.2588   -7429.5714          100          100          100 
     700    129.32332   -15497.001   -4354.9783    -3374.818   -3492.0502   -6198.0665          100          100          100 
     800    124.82448   -15687.584    -3790.236   -2933.6285   -3083.6903   -5353.3892          100          100          100 
     900    120.85009   -15854.452   -3309.8077   -2531.1851   -2659.4054   -4738.8325          100          100          100 
    1000    117.85269   -15987.913   -2883.5353   -2206.1802   -2247.8727    -4196.553          100          100          100 
    1100    114.25673   -16096.683   -2551.6914   -1857.6211   -1894.9333   -3902.5198          100          100          100 
    1200    111.77444   -16190.402   -2355.6177   -1598.1871   -1674.9124   -3793.7535          100          100          100 
    1300    111.90142   -16273.218   -2142.7111   -1376.7456   -1405.6287   -3645.7588          100          100          100 
    1400    111.04081   -16351.015   -1976.0047   -1241.9258   -1249.2275   -3436.8609          100          100          100 
    1500    110.43094   -16422.913   -1853.8831   -1119.0716   -1106.8528   -3335.7248          100          100          100 
    1600    108.27357   -16487.159   -1653.9718   -906.10969   -914.58574   -3141.2201          100          100          100 
    1700    107.34856   -16544.585    -1477.459   -715.82499   -721.75758   -2994.7945          100          100          100 
    1800    106.89181   -16597.563   -1321.8213   -614.79433    -542.5313   -2808.1383          100          100          100 
    1900    107.39107   -16648.175   -1161.8051   -440.63914   -401.51269   -2643.2636          100          100          100 
    2000     106.8191   -16696.491   -1036.1019   -395.43472   -262.56353   -2450.3073          100          100          100 
    2100     106.3243   -16737.991   -898.44568   -194.00747   -114.53131   -2386.7983          100          100          100 
    2200    104.19245   -16774.085   -843.36982   -213.57608   -109.43487   -2207.0985          100          100          100 
    2300    104.71169   -16805.551    -781.6992   -184.33936   -38.920319   -2121.8379          100          100          100 
    2400    104.59722    -16838.83      -758.75   -181.52878   -79.513302   -2015.2079          100          100          100 
    2500     104.9312   -16869.947   -764.20776   -185.61138   -86.969268   -2020.0426          100          100          100 
    2600    105.38214    -16904.78   -734.54155   -209.29353    -68.67341   -1925.6577          100          100          100 
    2700    103.43116   -16936.214   -707.32704   -155.67568   -168.42429   -1797.8812          100          100          100 
    2800    103.73321    -16963.15   -642.99312   -25.096569   -73.250974   -1830.6318          100          100          100 
    2900    102.79686   -16989.494   -595.49315    36.167925   -46.640548   -1776.0068          100          100          100 
    3000     102.5949   -17010.032   -508.39255    54.747706    71.502815   -1651.4282          100          100          100 
    3100     102.5796   -17029.147   -499.15025    13.668227    10.491233   -1521.6102          100          100          100 
    3200    102.68505   -17047.333   -449.92517    92.319434    130.81939   -1572.9143          100          100          100 
    3300    102.39139   -17066.296   -452.16553    70.276663    57.168276   -1483.9415          100          100          100 
    3400    102.10004   -17082.994   -506.20113   -17.159561   -13.788532   -1487.6553          100          100          100 
    3500    102.22193   -17100.358   -492.50081   -56.725638   -12.760505   -1408.0163          100          100          100 
    3600    101.13493   -17115.158    -444.5028   -71.362384    33.169657   -1295.3157          100          100          100 
    3700    102.24024   -17131.847   -405.82776   -27.600996    30.347923   -1220.2302          100          100          100 
    3800    102.15004    -17144.42   -367.27842    55.224924   -8.1826203   -1148.8776          100          100          100 
    3900    101.59133    -17155.78   -342.43964    20.749525    -44.79259   -1003.2759          100          100          100 
    4000    100.74749    -17166.34   -304.12413   -10.050428    53.104824   -955.42678          100          100          100 
    4100    101.41114   -17177.588   -191.89589    102.02142    67.060259   -744.76936          100          100          100 
    4200    101.39082   -17186.764   -209.44953    61.976988    46.269059   -736.59465          100          100          100 
    4300    101.30879   -17197.416   -202.61569    91.764253   -28.239439   -671.37189          100          100          100 
    4400     101.4363   -17207.577   -198.58912    10.226392   -18.088752     -587.905          100          100          100 
    4500    101.26028   -17214.974   -160.12374    10.355246    47.666565   -538.39303          100          100          100 
    4600    100.81036   -17225.264    -212.1273   -30.866236   -91.568289   -513.94739          100          100          100 
    4700    101.47558   -17233.071   -178.45757    -33.28846   -70.733468   -431.35077          100          100          100 
    4800    101.54102   -17243.599   -124.13685    20.988768   -35.793917   -357.60539          100          100          100 
    4900    101.54394    -17253.41   -120.54828    9.5235994    11.562963    -382.7314          100          100          100 
    5000    101.59911   -17261.995   -83.251483    25.930685    59.575904   -335.26104          100          100          100 
    5100    101.75864   -17276.464   -90.237475   -45.197756    36.911111   -262.42578          100          100          100 
    5200    101.00525   -17285.525   -4.9785683    70.619655    78.535303   -164.09066          100          100          100 
    5300    101.00698   -17295.649   -20.703023    61.099059    4.2199697    -127.4281          100          100          100 
    5400    101.83782   -17303.473   -34.048013   -25.327081    11.627196   -88.444152          100          100          100 
    5500    101.33083   -17313.638   -46.217929   -25.148238   -19.535284   -93.970264          100          100          100 
    5600    101.38095   -17321.827   -60.059814   -97.712297   -22.484508   -59.982637          100          100          100 
    5700    101.26149   -17328.577    -27.11339   -68.256522    34.295955   -47.379603          100          100          100 
    5800     100.5859   -17337.451   -26.474537   -49.666798    -102.7455    72.988685          100          100          100 
    5900    101.29502    -17344.84   -35.273853   -113.22173   -54.508263    61.908434          100          100          100 
    6000      100.976   -17354.423    66.875399    -46.40895    54.028501    193.00665          100          100          100 
    6100    100.95824   -17361.557    101.19683    63.588444    102.33147    137.67058          100          100          100 
    6200    100.93118   -17369.005    99.592475    29.802968    32.978475    235.99598          100          100          100 
    6300     101.5105    -17379.23    76.634651    75.194583   -3.0930363    157.80241          100          100          100 
    6400    100.78332   -17385.899    13.364857    5.6745063   -100.38277    134.80283          100          100          100 
    6500    100.90843   -17392.985    63.339928    85.516089   -45.233481    149.73718          100          100          100 
    6600    101.10913   -17399.252    21.004056    3.8209042   -61.911659    121.10292          100          100          100 
    6700    101.04349   -17409.045    11.556541    5.1991307   -74.284105     103.7546          100          100          100 
    6800     100.8578   -17415.467     3.332776   -68.965416    -15.87125    94.834994          100          100          100 
    6900    100.66402   -17422.881    26.819303   -82.111652    30.857406    131.71216          100          100          100 
    7000    100.66955   -17429.219    49.052913  -0.67773408    102.47209     45.36438          100          100          100 
    7100    100.73982   -17438.506     16.42829   -64.553282    55.965518    57.872633          100          100          100 
    7200    101.53788   -17447.857    -49.38064   -98.634455   -26.926165   -22.581299          100          100          100 
    7300    100.90678   -17457.045   -77.818028   -68.547108   -50.649086   -114.25789          100          100          100 
    7400    101.31979   -17463.562   -43.861097    13.387665   -34.160742   -110.81021          100          100          100 
    7500    100.77253   -17470.055    -54.80662    42.887466    23.039868   -230.34719          100          100          100 
    7600    101.24508   -17476.948   -79.776338    -21.38604   -39.445341   -178.49763          100          100          100 
    7700    101.04539   -17484.875   -45.058607    42.082793    10.979429   -188.23804          100          100          100 
    7800    101.10813   -17492.429   -66.614827    62.204706   -43.639046   -218.41014          100          100          100 
    7900    101.30744   -17496.537   -62.984392    30.349358    23.052811   -242.35535          100          100          100 
    8000    100.66811   -17502.603   -39.323776    86.512567    39.084212   -243.56811          100          100          100 
    8100     101.4812   -17509.118   -82.632017   -29.996648     57.53384   -275.43324          100          100          100 
    8200    100.89084   -17515.698   -69.487062   -27.042093    39.607562   -221.02665          100          100          100 
    8300    101.09042   -17521.319   -101.02357   -66.043311    8.3268966   -245.35429          100          100          100 
    8400    101.35255   -17528.357   -115.59514   -53.936941   -48.378516   -244.46995          100          100          100 
    8500    101.20815   -17533.228    -119.6619   -50.009815   -37.212612   -271.76328          100          100          100 
    8600    100.96236   -17538.791    -116.1609   -64.391124   -59.465896   -224.62569          100          100          100 
    8700    101.46725   -17542.358    -17.03998    61.646753     32.57171    -145.3384          100          100          100 
    8800    100.93745   -17549.152   -22.780387     91.54374    51.985147   -211.87005          100          100          100 
    8900    100.57933   -17553.083   -4.0653855     106.6312   -5.0757274   -113.75163          100          100          100 
    9000    100.52337   -17559.075  -0.46105243    39.882084    39.596907   -80.862148          100          100          100 
    9100    100.75146   -17562.902   -13.602309      98.0109    23.297002   -162.11483          100          100          100 
    9200    100.77798   -17567.887   -24.293117   -8.4444318    45.124536   -109.55945          100          100          100 
    9300    100.81576   -17572.017   -61.525882   -18.925526   -33.116644   -132.53548          100          100          100 
    9400    101.09153   -17577.153   -45.097694   0.78044039   -74.400649   -61.672874          100          100          100 
    9500    101.07127   -17581.531   -65.740828   -55.288711    -67.72016   -74.213612          100          100          100 
    9600    101.01594   -17585.756    -8.211334    13.515506   -21.241981   -16.907527          100          100          100 
    9700     100.7628   -17589.091    18.719068   -7.1840626    18.747954    44.593311          100          100          100 
    9800    101.24115   -17591.389    49.997153   -33.269863    109.60567    73.655652          100          100          100 
    9900    101.16947   -17595.197    46.257163   -39.567622    102.07877    76.260339          100          100          100 
   10000    100.14736   -17599.321    80.961201   -66.416294    135.51655    173.78335          100          100          100 
Loop time of 17.7935 on 28 procs for 10000 steps with 5538 atoms

Performance: 48.557 ns/day, 0.494 hours/ns, 562.004 timesteps/s
99.8% CPU use with 28 MPI tasks x 1 OpenMP threads

MPI task timing breakdown:
Section |  min time  |  avg time  |  max time  |%varavg| %total
---------------------------------------------------------------
Pair    | 10.89      | 14.631     | 16.556     |  56.6 | 82.22
Neigh   | 0.080258   | 0.16475    | 0.21854    |  11.8 |  0.93
Comm    | 0.75698    | 2.5553     | 6.0954     | 130.4 | 14.36
Output  | 0.026622   | 0.027074   | 0.03763    |   1.2 |  0.15
Modify  | 0.05351    | 0.075867   | 0.10509    |   6.2 |  0.43
Other   |            | 0.3398     |            |       |  1.91

Nlocal:    197.786 ave 276 max 71 min
Histogram: 6 2 0 0 0 0 2 7 4 7
Nghost:    347.5 ave 429 max 188 min
Histogram: 7 1 0 0 0 0 0 1 8 11
Neighs:    2004.71 ave 2937 max 326 min
Histogram: 4 4 0 0 0 0 0 4 11 5
FullNghs:  4009.43 ave 5830 max 829 min
Histogram: 7 1 0 0 0 0 0 4 9 7

Total # of neighbors = 112264
Ave neighs/atom = 20.2716
Neighbor list builds = 589
Dangerous builds = 13
unfix 1
unfix 2

#-----------------Pressure Equilibriation-----------------------
fix 1 all npt temp 100.0 100.0 10.0 aniso 0.0 0.0 10 drag 0.3
run 10000
Memory usage per processor = 8.77939 Mbytes
Step Temp TotEng Press Pxx Pyy Pzz Lx Ly Lz 
   10000    100.14736   -17599.321    80.961201   -66.416294    135.51655    173.78335          100          100          100 
   10100    102.41139   -17599.333    16.139298   -60.350595    10.602851    98.165639    99.995413    100.00663    100.01011 
   10200    103.53801   -17599.351    18.009425   -24.223866   -8.8813738    87.133515    99.983136    100.01589    100.03439 
   10300    107.61811    -17599.37   -2.8241844   -5.8129137   -102.94647    100.28683    99.966734    100.02155    100.06982 
   10400    111.08062   -17599.408    12.789699    22.558037   -56.119204    71.930265    99.950153    100.01497    100.11745 
   10500    116.54301   -17599.447    41.921131    35.241551    1.3067396    89.215103    99.933507    100.00168    100.17676 
   10600    117.96662   -17599.496    64.522698    49.480788    55.937355     88.14995     99.92088    99.989119    100.24862 
   10700    124.60101    -17599.54    56.736406    61.591576    42.780393     65.83725    99.915851    99.982963    100.33128 
   10800    126.65392   -17599.551   -7.6065841   -12.625327    19.213881   -29.408307    99.919919    99.983416    100.41723 
   10900    131.79617   -17599.525     -76.4497   -40.175928    -55.49241   -133.68076    99.925032    99.986425    100.49476 
   11000    136.37575   -17599.519   -54.788093   -4.1621064   -50.926018   -109.27616    99.925803    99.983337    100.55668 
   11100    137.36366   -17599.523   -68.399306   -22.158372   -81.593803   -101.44574    99.924456    99.972542    100.60419 
   11200    142.27655   -17599.563   -36.143776   -7.1383398   -72.613781   -28.679207    99.922019    99.952008    100.63747 
   11300    145.63357   -17599.609   -28.731334   -59.209296   -12.035956   -14.948751    99.919097    99.924387    100.66302 
   11400    149.00119   -17599.675    43.917737   -6.1993244    85.081753    52.870781    99.910377    99.898865    100.68391 
   11500    153.48711   -17599.747    68.699156    84.156502    88.642098    33.298867    99.900766    99.881991    100.71051 
   11600    160.55646   -17599.832    7.5692171    -50.47725    60.292864    12.892037    99.897771    99.874724    100.73893 
   11700     165.8778   -17599.937    -62.47494   -75.763808    1.4988411   -113.15985    99.888548    99.872409    100.76608 
   11800    166.01232    -17600.05   -26.791378    -18.35076     64.91393    -126.9373     99.87135    99.869175    100.78412 
   11900    171.55551   -17600.188    -30.74857    -3.703176   -58.146366   -30.396169    99.850165    99.870497    100.79096 
   12000    174.27561   -17600.348    6.0270485    26.580079   -61.760899    53.261965    99.824674     99.86591    100.79525 
   12100    177.72876   -17600.521    14.080927    14.968311    38.689749   -11.415279    99.798417    99.856217    100.80524 
   12200    177.50502   -17600.698    60.491631    30.459931    54.109727    96.905235     99.77659    99.848712    100.81988 
   12300    183.96919   -17600.907    70.265349    27.138512    16.026669    167.63086    99.763828    99.844124    100.84438 
   12400     188.0542   -17601.169    41.287736    12.095932   -23.800393    135.56767     99.76046    99.840144    100.88742 
   12500    193.55348   -17601.454     27.09373    2.0217431    15.180442    64.079004    99.761501    99.833709    100.95047 
   12600    199.73937   -17601.749   -64.867989   -49.664536   -149.54229    4.6028637    99.762728      99.8224    101.02691 
   12700     208.1497   -17602.002   -25.884101   -56.264361   -17.381971   -4.0059717    99.757236    99.796304    101.10122 
   12800    217.19414   -17602.328   -37.227527   -42.843732   -62.683314    -6.155534     99.74574     99.75795     101.1712 
   12900    220.11283   -17602.618   -16.717452   -10.742882   -63.510855    24.101383    99.730244    99.711315    101.23954 
   13000    227.42441   -17602.934    48.058007    -12.12496    169.37177   -13.072787    99.715383    99.662601    101.30774 
   13100    226.93339   -17603.192   -3.0027976    6.0792932    101.47741   -116.56509    99.702036    99.631668    101.37457 
   13200    231.42034   -17603.452   -4.3088145    47.703975    57.300693   -117.93111    99.691832    99.614352    101.42572 
   13300    238.12056   -17603.761    37.777666    41.493595    69.300328    2.5390746    99.686886    99.603522    101.45986 
   13400    245.64911   -17604.092   -66.441431   -47.253043   -71.995514   -80.075735    99.686378    99.600255    101.49096 
   13500    249.11996   -17604.432   -151.50689    -176.7204   -175.31478    -102.4855    99.682716    99.595039    101.51181 
   13600    254.25576   -17604.813    -25.72266    52.423718   -27.378865   -102.21283    99.665294    99.572481    101.51931 
   13700    267.23912   -17605.198   -16.769485   -22.037799   -28.036612   -0.2340441    99.653783    99.539849     101.5172 
   13800    272.54619   -17605.596    48.682439    23.422175    42.547555    80.077588    99.646603    99.505421    101.51335 
   13900    280.27449   -17606.026     104.1266    102.27642    34.703875    175.39949    99.642059     99.47684    101.51954 
   14000    284.43077   -17606.508    89.678319     82.68054    125.52926    60.825152    99.647394    99.455731    101.54974 
   14100    292.91424   -17607.012   -28.047861   -49.861016   -14.230245   -20.052323    99.659739    99.445948    101.59607 
   14200    291.93739   -17607.518   -72.321498   -92.937449   -104.13408   -19.892963     99.66466    99.435941    101.64004 
   14300    305.33071   -17608.061   -36.412521   -80.889324    53.503957   -81.852196    99.658508    99.419454     101.6772 
   14400    317.16469   -17608.645   -136.94406   -160.56042   -37.726212   -212.54554    99.645884    99.403789    101.69569 
   14500    327.24674   -17609.292   -19.283345    11.624507   -32.832847   -36.641694    99.623328    99.381383    101.68679 
   14600    326.63451   -17609.944    83.457441    142.61405    100.18231     7.575963    99.600987     99.36047    101.67152 
   14700    331.87635   -17610.639     34.37885    62.686138      114.667   -74.216589    99.593225    99.354163    101.65343 
   14800    347.66847   -17611.407    -19.68208    87.147632   -15.249566   -130.94431    99.600545    99.358282     101.6251 
   14900    355.12952   -17612.223   -13.609041   -44.360834    17.112848   -13.579137    99.622536    99.361343    101.58207 
   15000    355.94739   -17613.031   -68.955485   -78.746394   -125.06883   -3.0512259    99.642312    99.359075    101.53787 
   15100    366.21867   -17613.898    13.761634     59.69092    10.667517   -29.073535    99.649379    99.344613    101.49495 
   15200    371.44784   -17614.818   -78.113371   -57.585896   -16.641318    -160.1129     99.65958    99.325028    101.44752 
   15300    381.15534   -17615.787    32.579136   -16.977904    139.62728   -24.911973    99.660529    99.307656    101.38891 
   15400    387.55999   -17616.763    20.593096   -21.515447    150.61021   -67.315475    99.653852    99.303289    101.33001 
   15500    399.14176   -17617.826    40.219278    100.57148   0.87976142    19.206593    99.652534    99.315082    101.26502 
   15600    407.11564   -17618.887    8.7381256     23.02392    41.426641   -38.236184    99.660067    99.333858    101.20202 
   15700     420.9747   -17620.038   -57.597825   -35.796687   -60.778998   -76.217792    99.668871    99.353882    101.13575 
   15800    426.07184   -17621.248   -20.897131    57.034601    -59.62758   -60.098415     99.67057    99.373127    101.06316 
   15900    435.57423   -17622.525   -34.254819    15.530272    10.554992   -128.84972     99.67394    99.387579    100.98419 
   16000     440.4345   -17623.827   -71.782464   -62.779763   -145.10863    -7.459003    99.676305    99.394375    100.89759 
   16100    457.99532    -17625.13   -13.554026   -86.076324    -184.6801    230.09435    99.671915     99.38582    100.81721 
   16200    469.37019   -17626.491    93.679018    65.346541     93.17927    122.51124    99.658357    99.362369     100.7618 
   16300     483.5809   -17627.914     152.7549    209.99743    -29.53288    277.80017    99.653071    99.345395    100.72904 
   16400    486.33464   -17629.453    146.20803    176.81127   -101.29666    363.10949     99.66654    99.337184    100.72807 
   16500    488.05047   -17631.115    109.72903    -17.43674    1.4014188    345.22241      99.6962    99.329893    100.76393 
   16600    485.11716   -17632.806   -4.0890594   -94.439821    5.2481521    76.924491    99.730079    99.323971     100.8325 
   16700    502.32449   -17634.476   -104.10466   -107.99884   -169.35784   -34.957299     99.75645    99.314812    100.91403 
   16800     491.4603   -17636.121   -48.118129   -247.31205    80.481492    22.476173    99.769217    99.291613    100.98924 
   16900    505.44742   -17637.844   -44.540705   -206.56783    83.413961   -10.468251    99.752544    99.273051    101.05859 
   17000    505.98162   -17639.562    46.172447     182.7068    74.751991   -118.94145    99.721277    99.263281    101.12167 
   17100    509.79364   -17641.314    54.130901    171.07933    19.094273   -27.780898    99.705744    99.263801    101.17472 
   17200     507.8702   -17643.094   -38.439461    69.684474   -61.624016   -123.37884     99.70896    99.270863    101.21644 
   17300    510.83851   -17644.921    27.623145    141.26031  -0.56118859   -57.829689     99.72633    99.270403    101.23965 
   17400     521.6637   -17646.806     16.43882   -35.237427    44.189629    40.364258     99.75744    99.268847    101.25185 
   17500    518.58091   -17648.697   -82.752236   -103.65836   -54.845154   -89.753189    99.785176    99.267486    101.26224 
   17600    522.49123   -17650.608    11.149897    4.1971866   -44.122359    73.374863    99.799521    99.258536    101.26554 
   17700    525.72023   -17652.582    19.898401   -38.741366    40.858664    57.577903    99.809627    99.248933    101.27462 
   17800    519.06319   -17654.558   -19.696821   -96.286295   -40.612176    77.808009    99.814032    99.244021    101.29462 
   17900    517.83993   -17656.573    -11.08452   -54.936332   -75.524675    97.207448    99.809679    99.238893    101.32611 
   18000    528.03558   -17658.601    50.151826    12.147521    82.916189    55.391769    99.802385    99.226837    101.36839 
   18100    528.78291   -17660.679    53.531757   -18.875436    21.808737    157.66197    99.795939    99.221877    101.42055 
   18200    533.60051   -17662.827    80.426448    150.83091   -42.888415    133.33685    99.789513    99.219271    101.49186 
   18300    528.24675   -17664.986    35.995647    53.029259   -3.7929383    58.750621    99.794824    99.213766    101.58318 
   18400    538.75138   -17667.084    13.362585   -59.619548    93.555761    6.1515423    99.807959    99.211535    101.67826 
   18500     532.6843   -17669.181   -57.980327    -2.986886   -43.980978   -126.97312    99.817003    99.219834    101.76678 
   18600    532.77453   -17671.268   -140.05625   -155.06423   -118.13613   -146.96839    99.814422    99.222642    101.84121 
   18700    540.01188   -17673.398    10.339134   0.45175411    114.21803   -83.652386    99.797457    99.213378    101.89615 
   18800    538.64124   -17675.563    16.275902   -10.955383     152.8303   -93.047209     99.78265    99.215006     101.9364 
   18900     537.4002   -17677.785    7.9565991    14.097786    39.044033   -29.272021    99.767044    99.235733    101.96705 
   19000    537.64729   -17680.015    -11.43068   -37.667321   -7.7020385    11.077319    99.748252    99.264958    101.99261 
   19100    542.64408   -17682.233     26.36352    147.96591   -1.8042186   -67.071129    99.732437    99.292532    102.01308 
   19200    541.14809   -17684.472   -14.631544    75.110451   -170.20901    51.203929    99.731256    99.318516    102.02617 
   19300    533.30045   -17686.718    38.581582    192.58087   -161.65665    84.820528    99.739122    99.323167    102.04325 
   19400     543.7518   -17689.004   -41.177133   -83.804038   -112.87526    73.147896    99.756718    99.304577    102.07146 
   19500    539.85889     -17691.3    31.300564    112.54221    10.482297   -29.122814    99.770336    99.278342    102.10688 
   19600    542.74477   -17693.611    18.133125   -60.571426    39.981133    74.989666    99.789086     99.25378    102.14641 
   19700    541.31501   -17695.966    109.82905   -64.094153    166.64931    226.93201    99.801948     99.23597     102.2007 
   19800     541.3534   -17698.356    8.0018867   -50.238655    65.201472    9.0428426    99.810194      99.2311    102.27871 
   19900    535.69828   -17700.699    12.414368   -139.27453    162.11805    14.399586    99.808663    99.234948    102.36576 
   20000    539.42487   -17703.044    -10.65015    48.121508    18.030713   -98.102671    99.794943    99.249829    102.45287 
Loop time of 21.972 on 28 procs for 10000 steps with 5538 atoms

Performance: 39.323 ns/day, 0.610 hours/ns, 455.125 timesteps/s
99.9% CPU use with 28 MPI tasks x 1 OpenMP threads

MPI task timing breakdown:
Section |  min time  |  avg time  |  max time  |%varavg| %total
---------------------------------------------------------------
Pair    | 12.346     | 17.938     | 20.436     |  75.2 | 81.64
Neigh   | 0.05752    | 0.21185    | 0.29835    |  20.1 |  0.96
Comm    | 0.67898    | 3.0346     | 8.0189     | 172.7 | 13.81
Output  | 0.015665   | 0.016159   | 0.027685   |   1.7 |  0.07
Modify  | 0.25716    | 0.74673    | 1.5077     |  46.6 |  3.40
Other   |            | 0.02502    |            |       |  0.11

Nlocal:    197.786 ave 283 max 48 min
Histogram: 8 0 0 0 0 0 0 1 14 5
Nghost:    354.75 ave 460 max 168 min
Histogram: 8 0 0 0 0 0 0 2 11 7
Neighs:    1944.32 ave 2944 max 185 min
Histogram: 4 4 0 0 0 0 0 2 14 4
FullNghs:  3888.64 ave 5819 max 683 min
Histogram: 8 0 0 0 0 0 0 2 14 4

Total # of neighbors = 108882
Ave neighs/atom = 19.6609
Neighbor list builds = 742
Dangerous builds = 22
unfix 1
undump 1
shell cd ..
shell mkdir deform
WARNING: Shell command 'mkdir' failed with error 'File exists' (../input.cpp:1126)
shell cd deform

#--------------------Storing Initial length---------------------
variable tmp equal "lz"
variable L0 equal ${tmp}
variable L0 equal 102.452873705138
print "Initial Length, L0: ${L0}"
Initial Length, L0: 102.452873705138
variable strain equal "v_srate/1e12"

#------------Deform------------------------------
reset_timestep 0
fix 1 all deform 1 z erate 0.0001 units box
fix 2 all nvt temp 100.0 100.0 10.0

variable strain equal "(lz - v_L0)/v_L0"
variable p1 equal "v_strain"
variable p2 equal "-pxx/10000"
variable p3 equal "-pyy/10000"
variable p4 equal "-pzz/10000"
variable p5 equal "lx"
variable p6 equal "ly"
variable p7 equal "lz"
variable p8 equal "temp"
variable p9 equal "pe"
variable p10 equal "ke"
variable p11 equal "-pxy/10000"
variable p13 equal "-pyz/10000"
variable p12 equal "-pxz/10000"
variable fm equal "(v_p2+v_p3+v_p4)/3" ##### Hydrostatic stress

variable fv equal "sqrt((v_p2-v_p3)^2+(v_p3-v_p4)^2+(v_p4-v_p2)^2+6*(v_p11^2+v_p12^2+v_p13^2)/2)" ######Von Mises Stress

variable t equal "v_fm/v_fv"
variable fd equal (((v_p2-v_fm)*(v_p3-v_fm)*(v_p4-v_fm))-v_p11^2*(v_p4-v_fm)-v_p12^2*(v_p3-v_fm)-v_p13^2*(v_p2-v_fm)+2*v_p11*v_p12*v_p13)####Deviatoric Von Mises stress

dump 2 all custom 10000 dump.defo.* id type x y z c_csym c_2[1] c_2[2] c_2[3] c_2[4] c_2[5] c_2[6]
dump_modify     1 element Cu
ERROR: Cound not find dump_modify ID (../output.cpp:611)
                                                                                                                                                                                                                                                                                                                                                                                                                                                                                                                                                                                                                                                                                                                                                                                                                                                                                                                                                                                                                                                                                                                                                                                                                                                                                                                                                                                                                                                                                                                                                                                                                                                                                                                                                                                                                                                                                                                                                                                                                                                                                                                                                                                                                                                                                                                                                                                                                                                                                                                                                                                                                                                                                                                                                                                                                                                                                                                                                                                                                                                                                                                                                                                                                                                                                                                                                                                                                                                                                                                                                                                                                                                                                                                                                                                                                                                                                                                                                                                                                                                                                                                                                                                                                                                                                                                                                                                                                                                                                                                                                                                                                                                                                                                                                                                                                                                                                                                                                                                                                                                                                                                                                                                                                                                                                                                                                                                                                                                                                                                                                                                                                                                                                                                                                                                                                                                                                                                                                                                                                                                                                                                                                                                                                                                                                                                                                                                                                                                                                                                                                                                                                                                                                                                                                                                                                                                                                                                                                                                                                                                                                                                                                                                                                                                                                                                                                                                                                                                                                                                                                                                                                                                                                                                                                                                                                                                                                                                                                                                                                                                                                                                                                                                                                                                                                                                                                                                                                                                                                                                                                                                                                                                                                                                                                                                                                                                                                                                                                                                                                                                                                                                                                                                                                                                                                                                                                                                                                                                                                                                                                                                                                                                                                                                                                                                                                                                                                                                                                                                                                                                                                                                                                                                                                                                                                                                                                                                                                                                                                                                                                                                                                                                                                                                                                                                                                                                                                                                                                                                                                                                                                                                                                                                                                                                                                                                                                                                                                                                                                                                                                                                                                                                                                                                                                                                                                                                                                                                                                                                                                                                                                                                                                                                                                                                                                                                                                                                                                                                                                                                                                                                                                                                                                                                                                                                                                                                                                                                                                                                                                                                                                                                                                                                                                                                                                                                                                                                                                                                                                                                                                                                                                                                                                                                                                                                                                                                                                                                                                                                                                                                                                                                                                                                                                                                                                                                                                                                                                                                                                                                                                                                                                                                                                                                                                                                                                                                                                                                                                                                                                                                                                                                                                                                                                                                                                                                                                                                                                                                                                                                                                                                                                                                                                                                                                                                                                                                                                                                                                                                                                                                                                                                                                                                                                                                                                                                                                                                                                                                                                                                                                                                                                                                                                                                                                                                                                                                                                                                                                                                                                                                                                                                                                                                                                                                                                                                                                                                                                                                                                                                                                                                                                                                                                                                                                                                                                                                                                                                                                                                                                                                                                                                                                                                                                                                                                                                                                                                                                                                                                                                                                                                                                                                                                                                                                                                                                                                                                                                                                                                                                                                                                                                                                                                                                                                                                                                                                                                                                                                                                                                                                                                                                                                                                                                                                                                                                                                                                                                                                                                                                                                                                                                                                                                                                                                                                                                                                                                                                                                                                                                                                                                                                                                                                                                                                                                                                                                                                                                                                                                                                                                                                                                                                                                                                                                                                                                                                                                                                                                                                                                                                                                                                                                                                                                                                                                                                                                                                                                                                                                                                                                                                                                                                                                                                                                                                                                                                                                                                                                                                                                                                                                                                                                                                                                                                                                                                                                                                                                                                                                                                                                                                                                                                                                                                                                                                                                                                                                                                                                                                                                                                                                                                                                                                                                                                                                                                                                                                                                                                                                                                                                                                                                                                                                                                                                                                                                                                                                                                                                                                                                                                                                                                                                                                                                                                                                                                                                                                                                                                                                                                                                                                                                                                                                                                                                                                                                                                                                                                                                                                                                                                                                                                                                                                                                                                                                                                                                                                                                                                                                                                                                                                                                                                                                                                                                                                                                                                                                                                                                                                                                                                                                                                                                                                                                                                                                                                                                                                                                                                                                                                                                                                                                                                                                                                                                                                                                                                                                                                                                                                                                                                                                                                                                                                                                                                                                                                                                                                                                                                                                                                                                                                                                                                                                                                                                                                                                                                                                                                                                                                                                                                                                                                                                                                                                                                                                                                                                                                                                                                                                                                                                                                                                                                                                                                                                                                                                                                                                                                                                                                                                                                                                                                                                                                                                                                                                                                                                                                                                                                                                                                                                                                                                                                                                                                                                                                                                                                                                                                                                                                                                                                                                                                                                                                                                                                                                                                                                                                                                                                                                                                                                                                                                                                                                                                                                                                                                                                                                                                                                                                                                                                                                                                                                                                                                                                                                                                                                                                                                                                                                                                                                                                                                                                                                                                                                                                                                                                                                                                                                                                                                                                                                                                                                                                                                                                                                                                                                                                                                                                                                                                                                                                                                                                                                                                                                                                                                                                                                                                                                                                                                                                                                                                                                                                                                                                                                                                                                                                                                                                                                                                                                                                                                                                                                                                                                                                                                                                                                                                                                                                                                                                                                                                                                                                                                                                                                                                                                                                                                                                                                                                                                                                                                                                                                                                                                                                                                                                                                                                                                                                                                                                                                                                                                                                                                                                                                                                                                                                                                                                                                                                                                                                                                                                                                                                                                                                                                                                                                                                                                                                                                                                                                                                                                                                                                                                                                                                                                                                                                                                                                                                                                                                                                                                                                                                                                                                                                                                                                                                                                                                                                                                                                                                                                                                                                                                                                                                                                                                                                                                                                                                                                                                                                                                                                                                                                                                                                                                                                                                                                                                                                                                                                                                                                                                                                                                                                                                                                                                                                                                                                                                                                                                                                                                                                                                                                                                                                                                                                                                                                                                                                                                                                                                                                                                                                                                                                                                                                                                                                                                                                                                                                                                                                                                                                                                                                                                                                                                                                                                                                                                                                                                                                                                                                                                                                                                                                                                                                                                                                                                                                                                                                                                                                                                                                                                                                                                                                                                                                                                                                                                                                                                                                                                                                                                                                                                                                                                                                                                                                                                                                                                                                                                                                                                                                                                                                                                                                                                                                                                                                                                                                                                                                                                                                                                                                                                                                                                                                                                                                                                                                                                                                                                                                                                                                                                                                                                                                                                                                                                                                                                                                                                                                                                                                                                                                                                                                                                                                                                                                                                                                                                                                                                                                                                                                                                                                                                                                                                                                                                                                                                                                                                                                                                                                                                                                                                                                                                                                                                                                                                                                                                                                                                                                                                                                                                                                                                                                                                                                                                                                                                                                                                                                                                                                                                                                                                                                                                                                                                                                                                                                                                                                                                                                                                                                                                                                                                                                                                                                                                                                                                                                                                                                                                                                                                                                                                                                                                                                                                                                                                                                                                                                                                                                                                                                                                                                                                                                                                                                                                                                                                                                                                                                                                                                                                                                                                                                                                                                                                                                                                                                                                                                                                                                                                                                                                                                                                                                                                                                                                                                                                                                                                                                                                                                                                                                                                                                                                                                                                                                                                                                                                                                                                                                                                                                                                                                                                                                                                                                                                                                                                                                                                                                                                                                                                                                                                                                                                                                                                                                                                                                                                                                                                      
[...]
   85300    92.451023   -18394.145    20.240954    47.254395     22.18962   -8.7211535    99.794943    99.249829     103.3268 
   85400    93.214612   -18394.159    34.137244    54.571825    63.403052   -15.563144    99.794943    99.249829    103.32782 
   85500    93.480399   -18394.174   -10.187456   -13.484634    12.936449   -30.014184    99.794943    99.249829    103.32885 
   85600    92.730242   -18394.186   -21.597965   -19.552059    44.819861   -90.061697    99.794943    99.249829    103.32987 
   85700     92.45984   -18394.198   -3.9512651   -4.2263801    1.0279906   -8.6554059    99.794943    99.249829    103.33089 
   85800    93.084226   -18394.209     3.781088   -11.022851   -14.849431    37.215546    99.794943    99.249829    103.33192 
   85900    92.291454   -18394.219    1.5234299   -15.914426    18.638964    1.8457514    99.794943    99.249829    103.33294 
   86000    93.251342   -18394.228   0.63062561   -34.284819    20.528937    15.647759    99.794943    99.249829    103.33397 
   86100    92.265552   -18394.236    4.6238153    7.0607492   -24.238373     31.04907    99.794943    99.249829    103.33499 
   86200    91.866931   -18394.243    3.9387613    2.1233668   -14.793832    24.486749    99.794943    99.249829    103.33602 
   86300    92.072431   -18394.249   -18.402226   -14.247461   -44.008706    3.0494872    99.794943    99.249829    103.33704 
   86400    91.665018   -18394.254   -1.3134376    14.268506   -51.363463    33.154644    99.794943    99.249829    103.33807 
   86500    93.063912   -18394.258    8.2733524    17.304099    29.902977   -22.387019    99.794943    99.249829    103.33909 
   86600    92.806638   -18394.261    42.877823    41.974188    60.174045    26.485236    99.794943    99.249829    103.34012 
   86700    92.276036   -18394.263    6.6273123    43.165718   -31.159031    7.8752496    99.794943    99.249829    103.34114 
   86800    91.592064   -18394.264   -16.465905    11.798827   -15.860406   -45.336137    99.794943    99.249829    103.34216 
   86900    92.607844   -18394.264   -1.3634538   -52.598272    71.065087   -22.557177    99.794943    99.249829    103.34319 
   87000    92.528464   -18394.263    16.121884    7.3763168    17.778702    23.210633    99.794943    99.249829    103.34421 
   87100     94.59713   -18394.262    9.9043334    18.622549   -17.805454    28.895905    99.794943    99.249829    103.34524 
   87200    93.601617   -18394.259   -7.5391779   -43.008031   -32.985473    53.375971    99.794943    99.249829    103.34626 
   87300    91.165714   -18394.254   0.82380378   -22.209404    15.377705    9.3031106    99.794943    99.249829    103.34729 
   87400    92.271309   -18394.249    45.139589    75.343067   -27.299365    87.375065    99.794943    99.249829    103.34831 
   87500    91.803263   -18394.244    13.505099     46.47602   -27.238324    21.277602    99.794943    99.249829    103.34934 
   87600    91.896416   -18394.237   -12.837279   -41.528763   -4.6594158    7.6763418    99.794943    99.249829    103.35036 
   87700     93.66627   -18394.229      4.26127   -2.7474809    9.8812588    5.6500321    99.794943    99.249829    103.35139 
   87800    91.608911    -18394.22   -28.931211   -48.661849   -11.958107   -26.173678    99.794943    99.249829    103.35241 
   87900    92.908788    -18394.21   -35.147196   -30.473261    -38.38204   -36.586286    99.794943    99.249829    103.35343 
   88000    93.947679   -18394.199   -8.5071629   -39.208496    35.539091   -21.852084    99.794943    99.249829    103.35446 
   88100    92.515997   -18394.187   -5.6257138   -2.6515892     14.51167   -28.737222    99.794943    99.249829    103.35548 
   88200    93.088208   -18394.174     43.98497    19.758582    111.04427    1.1520556    99.794943    99.249829    103.35651 
   88300    92.396656    -18394.16    15.142368    26.018981    22.471432   -3.0633099    99.794943    99.249829    103.35753 
   88400    93.455158   -18394.145    4.2398197    14.029043   0.24294908   -1.5525332    99.794943    99.249829    103.35856 
   88500     93.63896   -18394.129     -9.65974    27.497174   -48.931844   -7.5445498    99.794943    99.249829    103.35958 
   88600    93.517748   -18394.112    -7.318128    7.2993723   -18.437335   -10.816421    99.794943    99.249829    103.36061 
   88700    92.136392   -18394.094   -39.777815   -70.232449   -38.789081   -10.311917    99.794943    99.249829    103.36163 
   88800     92.87358   -18394.075   -43.511946   -80.605988   -10.395349   -39.534502    99.794943    99.249829    103.36266 
   88900    93.156938   -18394.055   -21.170986   -23.154684   -35.731183   -4.6270914    99.794943    99.249829    103.36368 
   89000     92.83391   -18394.034   -17.801858    6.5223089    -15.28756   -44.640321    99.794943    99.249829     103.3647 
   89100    93.155929   -18394.012    16.171546    27.935629    73.630131   -53.051121    99.794943    99.249829    103.36573 
   89200    92.553466   -18393.989    46.506479    22.056923    122.58185   -5.1193368    99.794943    99.249829    103.36675 
   89300    91.116854   -18393.965    47.238799    78.176173    30.386482    33.153741    99.794943    99.249829    103.36778 
   89400    92.719593    -18393.94    17.901061    76.192926   -6.3915355   -16.098208    99.794943    99.249829     103.3688 
   89500    93.109188   -18393.915   -52.022486   -45.474646   -73.798256   -36.794555    99.794943    99.249829    103.36983 
   89600    92.745644   -18393.888   -23.862137   -31.229525   -39.235689   -1.1211979    99.794943    99.249829    103.37085 
   89700    92.261702    -18393.86   -31.329229   -46.341882   -56.292889    8.6470853    99.794943    99.249829    103.37188 
   89800    93.216566   -18393.831   -15.275391   -32.962109   -27.569303    14.705239    99.794943    99.249829     103.3729 
   89900    91.607296   -18393.801   -6.0371112   -48.331028    17.074197    13.145498    99.794943    99.249829    103.37393 
   90000    92.991673   -18393.771    18.624133   -33.308662    61.357655    27.823406    99.794943    99.249829    103.37495 
   90100    92.600942    -18393.74    44.568093    17.337997    71.895137    44.471146    99.794943    99.249829    103.37597 
   90200    93.699953   -18393.708    58.299453    35.670461    77.263622    61.964277    99.794943    99.249829      103.377 
   90300    93.151323   -18393.674    13.873627    21.340419    24.262442   -3.9819793    99.794943    99.249829    103.37802 
   90400     93.32967    -18393.64   0.64835639    23.093873   -33.481187    12.332383    99.794943    99.249829    103.37905 
   90500    93.139214   -18393.604   -18.803747   -2.9179715   -44.261367    -9.231902    99.794943    99.249829    103.38007 
   90600    92.905981   -18393.567   -52.803209   -27.705609   -91.112701   -39.591318    99.794943    99.249829     103.3811 
   90700    93.238023    -18393.53   -19.282725    54.996213   -95.167487   -17.676901    99.794943    99.249829    103.38212 
   90800    92.246464   -18393.492    -17.73804   -26.247558   -32.216898    5.2503364    99.794943    99.249829    103.38315 
   90900    91.509573   -18393.452   -1.7581029   -11.018221    23.652478   -17.908566    99.794943    99.249829    103.38417 
   91000    93.955965   -18393.413    17.286728    25.966584    19.219388    6.6742116    99.794943    99.249829    103.38519 
   91100     94.55259   -18393.372    56.075358    86.311921    24.392278    57.521875    99.794943    99.249829    103.38622 
   91200    92.223733    -18393.33    58.169563    36.020138    68.931595    69.556957    99.794943    99.249829    103.38724 
   91300    92.327275   -18393.288    9.2706284   -15.751149    24.366103    19.196931    99.794943    99.249829    103.38827 
   91400    92.590514   -18393.244    4.2418222   -5.1166295     14.44734     3.394756    99.794943    99.249829    103.38929 
   91500    92.939789   -18393.199   -44.915172   -43.505105   -35.587652   -55.652758    99.794943    99.249829    103.39032 
   91600    93.455508   -18393.154   -49.518748   -64.129505   -62.583549   -21.843188    99.794943    99.249829    103.39134 
   91700    94.096554   -18393.107   -18.431915   -18.982181   -42.876327    6.5627632    99.794943    99.249829    103.39237 
   91800    93.426377    -18393.06   -6.5812824   -29.678807    23.497719   -13.562759    99.794943    99.249829    103.39339 
   91900    93.693483   -18393.012   -22.860973   -34.304152    21.522505   -55.801274    99.794943    99.249829    103.39442 
   92000    93.719256   -18392.962    9.2997094    20.610689    35.946752   -28.658312    99.794943    99.249829    103.39544 
   92100    93.104407   -18392.912    40.328528    74.452379    25.175767    21.357439    99.794943    99.249829    103.39646 
   92200    92.606363   -18392.861    18.341202    41.784527    9.6692623     3.569818    99.794943    99.249829    103.39749 
   92300    92.717581   -18392.809    22.622865    64.603241    11.646289   -8.3809357    99.794943    99.249829    103.39851 
   92400    93.525334   -18392.757    18.518094    36.708768   -3.5951596    22.440674    99.794943    99.249829    103.39954 
   92500    93.500636   -18392.704   -11.173922    23.589561   -32.506674   -24.604654    99.794943    99.249829    103.40056 
   92600    92.736925   -18392.649   -24.511502   -35.266257   -7.6274193   -30.640831    99.794943    99.249829    103.40159 
   92700    93.680535   -18392.595   -46.537499   -57.425068   -90.625261    8.4378341    99.794943    99.249829    103.40261 
   92800    93.098907   -18392.539   -36.651835   -95.462223   -12.331379    -2.161903    99.794943    99.249829    103.40364 
   92900    94.137286   -18392.483   -18.528366   -58.386395   -11.055167    13.856463    99.794943    99.249829    103.40466 
   93000    93.732697   -18392.425    28.434151    13.489416     33.88688    37.926158    99.794943    99.249829    103.40569 
   93100    94.227728   -18392.368    27.311476    11.219656    6.8953001    63.819473    99.794943    99.249829    103.40671 
   93200     93.53062   -18392.309    42.278139    63.892459    20.078512    42.863445    99.794943    99.249829    103.40773 
   93300    94.542274   -18392.249    44.479479    62.879785    54.887087    15.671566    99.794943    99.249829    103.40876 
   93400    94.209015   -18392.189    28.840353    27.667564    27.417024    31.436471    99.794943    99.249829    103.40978 
   93500    94.821725   -18392.127   -32.285435   -9.0306631    -23.38007   -64.445571    99.794943    99.249829    103.41081 
   93600    94.107397   -18392.065   -43.058673   -19.523415   -46.456787   -63.195816    99.794943    99.249829    103.41183 
   93700    94.284744   -18392.002   -10.049538   -52.229561    37.005437    -14.92449    99.794943    99.249829    103.41286 
   93800    94.185209   -18391.938    20.486675    12.884691    26.903499    21.671836    99.794943    99.249829    103.41388 
   93900    94.128955   -18391.874    6.3072492    -36.30389    26.904968    28.320669    99.794943    99.249829    103.41491 
   94000     95.38198   -18391.809    22.990233    11.504887    10.471194    46.994618    99.794943    99.249829    103.41593 
   94100    95.202072   -18391.744    26.880979   -4.6624845    36.255011     49.05041    99.794943    99.249829    103.41696 
   94200    93.621473   -18391.677      32.6102    45.173439    2.2241161    50.433046    99.794943    99.249829    103.41798 
   94300    93.678508   -18391.609   -34.285808   -33.922621   -46.833561   -22.101241    99.794943    99.249829      103.419 
   94400    94.680544   -18391.541   -14.771864   -40.097412   -11.483628    7.2654493    99.794943    99.249829    103.42003 
   94500    95.468038   -18391.473  -0.31290446   -2.8809077   -33.046363    34.988558    99.794943    99.249829    103.42105 
   94600    93.747138   -18391.403   -10.352935     33.48525   -44.466938   -20.077117    99.794943    99.249829    103.42208 
   94700     93.68072   -18391.333   -32.551636   -3.2111411    -56.78931   -37.654457    99.794943    99.249829     103.4231 
   94800     93.47777   -18391.262    3.7468834     -12.5033    29.126301   -5.3823511    99.794943    99.249829    103.42413 
   94900    93.196311    -18391.19     40.54972    43.471172     54.01793    24.160057    99.794943    99.249829    103.42515 
   95000    94.417223   -18391.119    4.4114663    3.4033871   -4.4742034    14.305215    99.794943    99.249829    103.42618 
   95100    92.745775   -18391.046    1.7770764    -21.37837    33.033314   -6.3237145    99.794943    99.249829     103.4272 
   95200     95.86983   -18390.973    9.3111225    3.9059467    12.983274    11.044147    99.794943    99.249829    103.42823 
   95300    95.257877   -18390.899   -14.207601     17.46819   -16.829094   -43.261899    99.794943    99.249829    103.42925 
   95400    94.921661   -18390.824   -13.544924    40.528174   -52.966445     -28.1965    99.794943    99.249829    103.43027 
   95500    93.824865   -18390.748   -41.195003    12.835105   -116.01222   -20.407892    99.794943    99.249829     103.4313 
   95600    95.033779   -18390.673   -21.671602    16.909504   -78.308739   -3.6155717    99.794943    99.249829    103.43232 
   95700    95.032014   -18390.597    11.188269   -2.6909918    34.029353     2.226447    99.794943    99.249829    103.43335 
   95800     95.77422    -18390.52    13.943717    24.441239    5.4467179    11.943196    99.794943    99.249829    103.43437 
   95900    95.878569   -18390.443    28.478427    -6.044618    61.845298    29.634601    99.794943    99.249829     103.4354 
   96000    96.218299   -18390.365     7.464976   -34.142525    41.223053      15.3144    99.794943    99.249829    103.43642 
   96100    95.669657   -18390.286    28.923744    19.637166    40.436548    26.697516    99.794943    99.249829    103.43745 
   96200    96.597505   -18390.207     15.11754    7.3850112    17.666561    20.301049    99.794943    99.249829    103.43847 
   96300    94.959689   -18390.127   -31.763623   -79.846497    1.5289458   -16.973319    99.794943    99.249829    103.43949 
   96400    95.481504   -18390.047   -34.309707    28.231536   -55.670586   -75.490072    99.794943    99.249829    103.44052 
   96500    96.562957   -18389.966   -2.7778879    42.591962   -28.464825   -22.460801    99.794943    99.249829    103.44154 
   96600    94.799015   -18389.884    17.335766    24.008236    -2.030519    30.029582    99.794943    99.249829    103.44257 
   96700    95.994805   -18389.802    -1.906495    4.1154091   -32.050586    22.215692    99.794943    99.249829    103.44359 
   96800    93.839521   -18389.721   -16.241848   -21.978053   -8.6982003   -18.049291    99.794943    99.249829    103.44462 
   96900     96.21524   -18389.638   0.49664595      3.01231    1.3591324   -2.8815046    99.794943    99.249829    103.44564 
   97000    96.311161   -18389.555    32.990962    41.928121    3.1107861    53.933979    99.794943    99.249829    103.44667 
   97100    96.135957   -18389.471     9.454124    36.496174   -34.539238    26.405437    99.794943    99.249829    103.44769 
   97200    95.688648   -18389.387    6.1775455    7.1450911   -9.5485515    20.936097    99.794943    99.249829    103.44872 
   97300    97.293817   -18389.302    11.138716    8.4150472    18.855105    6.1459973    99.794943    99.249829    103.44974 
   97400    95.929294   -18389.216    28.914616    22.650609    32.067117    32.026121    99.794943    99.249829    103.45076 
   97500    96.422444   -18389.131   -20.689929   -46.565285   -7.5602776   -7.9442254    99.794943    99.249829    103.45179 
   97600    96.096799   -18389.044   -22.494402   -12.376527   -26.617361   -28.489318    99.794943    99.249829    103.45281 
   97700    96.809826   -18388.958   -26.163498   -5.4219557   -44.077264   -28.991273    99.794943    99.249829    103.45384 
   97800    94.688976    -18388.87    20.995875    50.040252   -26.698248     39.64562    99.794943    99.249829    103.45486 
   97900    95.988514   -18388.784   -14.584932   -65.736327    2.0195951    19.961935    99.794943    99.249829    103.45589 
   98000    95.892869   -18388.696    40.967249    36.205595    43.870993    42.825158    99.794943    99.249829    103.45691 
   98100    95.481969   -18388.608    32.487453     48.70165    42.471649    6.2890594    99.794943    99.249829    103.45794 
   98200    96.131949   -18388.519    9.8340292    10.157933    18.941064   0.40309051    99.794943    99.249829    103.45896 
   98300    97.448371   -18388.431    4.0775477    10.173293   -38.771087    40.830437    99.794943    99.249829    103.45999 
   98400    96.200428   -18388.342   -4.6912689    11.358595    -40.60493    15.172528    99.794943    99.249829    103.46101 
   98500    96.447264   -18388.253    1.1436685    12.895093   -20.746248     11.28216    99.794943    99.249829    103.46203 
   98600    94.945207   -18388.163   -25.479493    8.6298159   -53.997642   -31.070654    99.794943    99.249829    103.46306 
   98700    96.169025   -18388.073   -58.837008    -55.20937   -90.144883   -31.156769    99.794943    99.249829    103.46408 
   98800    97.612839   -18387.983   -13.117346    16.729299   -34.810655   -21.270682    99.794943    99.249829    103.46511 
   98900    96.984471   -18387.891     30.68456     21.40434    70.847003  -0.19766171    99.794943    99.249829    103.46613 
   99000    96.670651     -18387.8    13.673653    14.863225    43.789241   -17.631506    99.794943    99.249829    103.46716 
   99100    97.724887   -18387.709     24.21705     35.25022    49.528708   -12.127777    99.794943    99.249829    103.46818 
   99200    96.184354   -18387.617    9.2181017    1.3888241     7.686101     18.57938    99.794943    99.249829    103.46921 
   99300    97.328202   -18387.526    5.4013051    59.343842   -37.238775   -5.9011523    99.794943    99.249829    103.47023 
   99400    97.271262   -18387.433   -23.742956   -74.814315    12.084354   -8.4989062    99.794943    99.249829    103.47126 
   99500    97.368244   -18387.341   -63.120077   -31.916767   -70.184506   -87.258958    99.794943    99.249829    103.47228 
   99600    97.452421   -18387.247   -29.179532    -37.39252   -26.633511   -23.512566    99.794943    99.249829     103.4733 
   99700    97.059347   -18387.154   -21.742079    17.885207   -21.458591   -61.652852    99.794943    99.249829    103.47433 
   99800    95.975445   -18387.061    17.418284    44.097195   -14.456611    22.614266    99.794943    99.249829    103.47535 
   99900    96.933074   -18386.968     14.78858    37.198749    24.250387   -17.083395    99.794943    99.249829    103.47638 
  100000    99.148782   -18386.875    28.901607    42.384434    55.433078   -11.112691    99.794943    99.249829     103.4774 
Loop time of 229.474 on 28 procs for 100000 steps with 5538 atoms

Performance: 37.651 ns/day, 0.637 hours/ns, 435.778 timesteps/s
99.9% CPU use with 28 MPI tasks x 1 OpenMP threads

MPI task timing breakdown:
Section |  min time  |  avg time  |  max time  |%varavg| %total
---------------------------------------------------------------
Pair    | 131.93     | 191.79     | 218.89     | 250.8 | 83.58
Neigh   | 0.26193    | 1.2853     | 1.8866     |  53.2 |  0.56
Comm    | 4.2902     | 30.722     | 91.124     | 614.7 | 13.39
Output  | 0.20881    | 0.21701    | 0.22036    |   0.5 |  0.09
Modify  | 2.958      | 5.0509     | 8.6774     |  79.7 |  2.20
Other   |            | 0.414      |            |       |  0.18

Nlocal:    197.786 ave 282 max 39 min
Histogram: 7 1 0 0 0 0 0 1 11 8
Nghost:    356.321 ave 462 max 170 min
Histogram: 8 0 0 0 0 0 0 3 11 6
Neighs:    1947.61 ave 2897 max 152 min
Histogram: 4 3 1 0 0 0 0 4 9 7
FullNghs:  3895.21 ave 5762 max 591 min
Histogram: 7 1 0 0 0 0 0 4 10 6

Total # of neighbors = 109066
Ave neighs/atom = 19.6941
Neighbor list builds = 4521
Dangerous builds = 4

Total wall time: 0:04:30
