LAMMPS (16 Feb 2016)
WARNING: OMP_NUM_THREADS environment is not set. (../comm.cpp:90)
  using 1 OpenMP thread(s) per MPI task
Lattice spacing in x,y,z = 3.2 5.54256 5.22558
Created orthogonal box = (0 0 0) to (100 100 100)
  2 by 2 by 7 MPI processor grid
Lattice spacing in x,y,z = 3.2 5.54256 5.22558
Created 5538 atoms
Reading potential file library.meam with DATE: 2012-06-29
Reading potential file Cu.meam with DATE: 2007-06-11
Neighbor list info ...
  3 neighbor list requests
  update every 1 steps, delay 10 steps, check yes
  max neighbors/atom: 2000, page size: 100000
  master list distance cutoff = 4.3
  ghost atom cutoff = 4.3
  binsize = 2.15, bins = 47 47 47
Setting up Verlet run ...
  Unit style  : metal
  Current step: 0
  Time step   : 0.001
Memory usage per processor = 8.766 Mbytes
Step Temp TotEng Press Pxx Pyy Pzz Lx Ly Lz 
       0          100    74533.891    126282.18   -21961.071   -22040.494    422848.11          100          100          100 
     100    328.52595   -12542.697   -12626.862   -11794.071   -11849.771   -14236.744          100          100          100 
     200    183.44143   -13462.927   -13991.587   -12634.268   -12743.661    -16596.83          100          100          100 
     300    172.52322   -14022.164   -10739.972   -9439.8075   -9351.9381    -13428.17          100          100          100 
     400    165.24783    -14512.22   -7941.3567   -6620.3902   -6619.1806   -10584.499          100          100          100 
     500    153.23878   -14938.652   -6281.6176   -4994.3211   -4953.5062   -8897.0254          100          100          100 
     600    139.23132   -15259.589   -5168.7032   -4023.2793   -4053.2588   -7429.5714          100          100          100 
     700    129.32332   -15497.001   -4354.9783    -3374.818   -3492.0502   -6198.0665          100          100          100 
     800    124.82448   -15687.584    -3790.236   -2933.6285   -3083.6903   -5353.3892          100          100          100 
     900    120.85009   -15854.452   -3309.8077   -2531.1851   -2659.4054   -4738.8325          100          100          100 
    1000    117.85269   -15987.913   -2883.5353   -2206.1802   -2247.8727    -4196.553          100          100          100 
    1100    114.25673   -16096.683   -2551.6914   -1857.6211   -1894.9333   -3902.5198          100          100          100 
    1200    111.77444   -16190.402   -2355.6177   -1598.1871   -1674.9124   -3793.7535          100          100          100 
    1300    111.90142   -16273.218   -2142.7111   -1376.7456   -1405.6287   -3645.7588          100          100          100 
    1400    111.04081   -16351.015   -1976.0047   -1241.9258   -1249.2275   -3436.8609          100          100          100 
    1500    110.43094   -16422.913   -1853.8831   -1119.0716   -1106.8528   -3335.7248          100          100          100 
    1600    108.27357   -16487.159   -1653.9718   -906.10969   -914.58574   -3141.2201          100          100          100 
    1700    107.34856   -16544.585    -1477.459   -715.82499   -721.75758   -2994.7945          100          100          100 
    1800    106.89181   -16597.563   -1321.8213   -614.79433    -542.5313   -2808.1383          100          100          100 
    1900    107.39107   -16648.175   -1161.8051   -440.63914   -401.51269   -2643.2636          100          100          100 
    2000     106.8191   -16696.491   -1036.1019   -395.43472   -262.56353   -2450.3073          100          100          100 
    2100     106.3243   -16737.991   -898.44568   -194.00747   -114.53131   -2386.7983          100          100          100 
    2200    104.19245   -16774.085   -843.36982   -213.57608   -109.43487   -2207.0985          100          100          100 
    2300    104.71169   -16805.551    -781.6992   -184.33936   -38.920319   -2121.8379          100          100          100 
    2400    104.59722    -16838.83      -758.75   -181.52878   -79.513302   -2015.2079          100          100          100 
    2500     104.9312   -16869.947   -764.20776   -185.61138   -86.969268   -2020.0426          100          100          100 
    2600    105.38214    -16904.78   -734.54155   -209.29353    -68.67341   -1925.6577          100          100          100 
    2700    103.43116   -16936.214   -707.32704   -155.67568   -168.42429   -1797.8812          100          100          100 
    2800    103.73321    -16963.15   -642.99312   -25.096569   -73.250974   -1830.6318          100          100          100 
    2900    102.79686   -16989.494   -595.49315    36.167925   -46.640548   -1776.0068          100          100          100 
    3000     102.5949   -17010.032   -508.39255    54.747706    71.502815   -1651.4282          100          100          100 
    3100     102.5796   -17029.147   -499.15025    13.668227    10.491233   -1521.6102          100          100          100 
    3200    102.68505   -17047.333   -449.92517    92.319434    130.81939   -1572.9143          100          100          100 
    3300    102.39139   -17066.296   -452.16553    70.276663    57.168276   -1483.9415          100          100          100 
    3400    102.10004   -17082.994   -506.20113   -17.159561   -13.788532   -1487.6553          100          100          100 
    3500    102.22193   -17100.358   -492.50081   -56.725638   -12.760505   -1408.0163          100          100          100 
    3600    101.13493   -17115.158    -444.5028   -71.362384    33.169657   -1295.3157          100          100          100 
    3700    102.24024   -17131.847   -405.82776   -27.600996    30.347923   -1220.2302          100          100          100 
    3800    102.15004    -17144.42   -367.27842    55.224924   -8.1826203   -1148.8776          100          100          100 
    3900    101.59133    -17155.78   -342.43964    20.749525    -44.79259   -1003.2759          100          100          100 
    4000    100.74749    -17166.34   -304.12413   -10.050428    53.104824   -955.42678          100          100          100 
    4100    101.41114   -17177.588   -191.89589    102.02142    67.060259   -744.76936          100          100          100 
    4200    101.39082   -17186.764   -209.44953    61.976988    46.269059   -736.59465          100          100          100 
    4300    101.30879   -17197.416   -202.61569    91.764253   -28.239439   -671.37189          100          100          100 
    4400     101.4363   -17207.577   -198.58912    10.226392   -18.088752     -587.905          100          100          100 
    4500    101.26028   -17214.974   -160.12374    10.355246    47.666565   -538.39303          100          100          100 
    4600    100.81036   -17225.264    -212.1273   -30.866236   -91.568289   -513.94739          100          100          100 
    4700    101.47558   -17233.071   -178.45757    -33.28846   -70.733468   -431.35077          100          100          100 
    4800    101.54102   -17243.599   -124.13685    20.988768   -35.793917   -357.60539          100          100          100 
    4900    101.54394    -17253.41   -120.54828    9.5235994    11.562963    -382.7314          100          100          100 
    5000    101.59911   -17261.995   -83.251483    25.930685    59.575904   -335.26104          100          100          100 
    5100    101.75864   -17276.464   -90.237475   -45.197756    36.911111   -262.42578          100          100          100 
    5200    101.00525   -17285.525   -4.9785683    70.619655    78.535303   -164.09066          100          100          100 
    5300    101.00698   -17295.649   -20.703023    61.099059    4.2199697    -127.4281          100          100          100 
    5400    101.83782   -17303.473   -34.048013   -25.327081    11.627196   -88.444152          100          100          100 
    5500    101.33083   -17313.638   -46.217929   -25.148238   -19.535284   -93.970264          100          100          100 
    5600    101.38095   -17321.827   -60.059814   -97.712297   -22.484508   -59.982637          100          100          100 
    5700    101.26149   -17328.577    -27.11339   -68.256522    34.295955   -47.379603          100          100          100 
    5800     100.5859   -17337.451   -26.474537   -49.666798    -102.7455    72.988685          100          100          100 
    5900    101.29502    -17344.84   -35.273853   -113.22173   -54.508263    61.908434          100          100          100 
    6000      100.976   -17354.423    66.875399    -46.40895    54.028501    193.00665          100          100          100 
    6100    100.95824   -17361.557    101.19683    63.588444    102.33147    137.67058          100          100          100 
    6200    100.93118   -17369.005    99.592475    29.802968    32.978475    235.99598          100          100          100 
    6300     101.5105    -17379.23    76.634651    75.194583   -3.0930363    157.80241          100          100          100 
    6400    100.78332   -17385.899    13.364857    5.6745063   -100.38277    134.80283          100          100          100 
    6500    100.90843   -17392.985    63.339928    85.516089   -45.233481    149.73718          100          100          100 
    6600    101.10913   -17399.252    21.004056    3.8209042   -61.911659    121.10292          100          100          100 
    6700    101.04349   -17409.045    11.556541    5.1991307   -74.284105     103.7546          100          100          100 
    6800     100.8578   -17415.467     3.332776   -68.965416    -15.87125    94.834994          100          100          100 
    6900    100.66402   -17422.881    26.819303   -82.111652    30.857406    131.71216          100          100          100 
    7000    100.66955   -17429.219    49.052913  -0.67773408    102.47209     45.36438          100          100          100 
    7100    100.73982   -17438.506     16.42829   -64.553282    55.965518    57.872633          100          100          100 
    7200    101.53788   -17447.857    -49.38064   -98.634455   -26.926165   -22.581299          100          100          100 
    7300    100.90678   -17457.045   -77.818028   -68.547108   -50.649086   -114.25789          100          100          100 
    7400    101.31979   -17463.562   -43.861097    13.387665   -34.160742   -110.81021          100          100          100 
    7500    100.77253   -17470.055    -54.80662    42.887466    23.039868   -230.34719          100          100          100 
    7600    101.24508   -17476.948   -79.776338    -21.38604   -39.445341   -178.49763          100          100          100 
    7700    101.04539   -17484.875   -45.058607    42.082793    10.979429   -188.23804          100          100          100 
    7800    101.10813   -17492.429   -66.614827    62.204706   -43.639046   -218.41014          100          100          100 
    7900    101.30744   -17496.537   -62.984392    30.349358    23.052811   -242.35535          100          100          100 
    8000    100.66811   -17502.603   -39.323776    86.512567    39.084212   -243.56811          100          100          100 
    8100     101.4812   -17509.118   -82.632017   -29.996648     57.53384   -275.43324          100          100          100 
    8200    100.89084   -17515.698   -69.487062   -27.042093    39.607562   -221.02665          100          100          100 
    8300    101.09042   -17521.319   -101.02357   -66.043311    8.3268966   -245.35429          100          100          100 
    8400    101.35255   -17528.357   -115.59514   -53.936941   -48.378516   -244.46995          100          100          100 
    8500    101.20815   -17533.228    -119.6619   -50.009815   -37.212612   -271.76328          100          100          100 
    8600    100.96236   -17538.791    -116.1609   -64.391124   -59.465896   -224.62569          100          100          100 
    8700    101.46725   -17542.358    -17.03998    61.646753     32.57171    -145.3384          100          100          100 
    8800    100.93745   -17549.152   -22.780387     91.54374    51.985147   -211.87005          100          100          100 
    8900    100.57933   -17553.083   -4.0653855     106.6312   -5.0757274   -113.75163          100          100          100 
    9000    100.52337   -17559.075  -0.46105243    39.882084    39.596907   -80.862148          100          100          100 
    9100    100.75146   -17562.902   -13.602309      98.0109    23.297002   -162.11483          100          100          100 
    9200    100.77798   -17567.887   -24.293117   -8.4444318    45.124536   -109.55945          100          100          100 
    9300    100.81576   -17572.017   -61.525882   -18.925526   -33.116644   -132.53548          100          100          100 
    9400    101.09153   -17577.153   -45.097694   0.78044039   -74.400649   -61.672874          100          100          100 
    9500    101.07127   -17581.531   -65.740828   -55.288711    -67.72016   -74.213612          100          100          100 
    9600    101.01594   -17585.756    -8.211334    13.515506   -21.241981   -16.907527          100          100          100 
    9700     100.7628   -17589.091    18.719068   -7.1840626    18.747954    44.593311          100          100          100 
    9800    101.24115   -17591.389    49.997153   -33.269863    109.60567    73.655652          100          100          100 
    9900    101.16947   -17595.197    46.257163   -39.567622    102.07877    76.260339          100          100          100 
   10000    100.14736   -17599.321    80.961201   -66.416294    135.51655    173.78335          100          100          100 
Loop time of 18.2633 on 28 procs for 10000 steps with 5538 atoms

Performance: 47.308 ns/day, 0.507 hours/ns, 547.546 timesteps/s
99.8% CPU use with 28 MPI tasks x 1 OpenMP threads

MPI task timing breakdown:
Section |  min time  |  avg time  |  max time  |%varavg| %total
---------------------------------------------------------------
Pair    | 11.111     | 14.906     | 17.015     |  57.4 | 81.62
Neigh   | 0.079162   | 0.1669     | 0.22512    |  12.0 |  0.91
Comm    | 0.70531    | 2.7499     | 6.4191     | 130.9 | 15.06
Output  | 0.0075659  | 0.0076886  | 0.0088281  |   0.3 |  0.04
Modify  | 0.071326   | 0.097548   | 0.13386    |   6.4 |  0.53
Other   |            | 0.3355     |            |       |  1.84

Nlocal:    197.786 ave 276 max 71 min
Histogram: 6 2 0 0 0 0 2 7 4 7
Nghost:    347.5 ave 429 max 188 min
Histogram: 7 1 0 0 0 0 0 1 8 11
Neighs:    2004.71 ave 2937 max 326 min
Histogram: 4 4 0 0 0 0 0 4 11 5
FullNghs:  4009.43 ave 5830 max 829 min
Histogram: 7 1 0 0 0 0 0 4 9 7

Total # of neighbors = 112264
Ave neighs/atom = 20.2716
Neighbor list builds = 589
Dangerous builds = 13
Setting up Verlet run ...
  Unit style  : metal
  Current step: 10000
  Time step   : 0.001
Memory usage per processor = 8.77939 Mbytes
Step Temp TotEng Press Pxx Pyy Pzz Lx Ly Lz 
   10000    100.14736   -17599.321    80.961201   -66.416294    135.51655    173.78335          100          100          100 
   10100    102.41139   -17599.333    16.139298   -60.350595    10.602851    98.165639    99.995413    100.00663    100.01011 
   10200    103.53801   -17599.351    18.009425   -24.223866   -8.8813738    87.133515    99.983136    100.01589    100.03439 
   10300    107.61811    -17599.37   -2.8241844   -5.8129137   -102.94647    100.28683    99.966734    100.02155    100.06982 
   10400    111.08062   -17599.408    12.789699    22.558037   -56.119204    71.930265    99.950153    100.01497    100.11745 
   10500    116.54301   -17599.447    41.921131    35.241551    1.3067396    89.215103    99.933507    100.00168    100.17676 
   10600    117.96662   -17599.496    64.522698    49.480788    55.937355     88.14995     99.92088    99.989119    100.24862 
   10700    124.60101    -17599.54    56.736406    61.591576    42.780393     65.83725    99.915851    99.982963    100.33128 
   10800    126.65392   -17599.551   -7.6065841   -12.625327    19.213881   -29.408307    99.919919    99.983416    100.41723 
   10900    131.79617   -17599.525     -76.4497   -40.175928    -55.49241   -133.68076    99.925032    99.986425    100.49476 
   11000    136.37575   -17599.519   -54.788093   -4.1621064   -50.926018   -109.27616    99.925803    99.983337    100.55668 
   11100    137.36366   -17599.523   -68.399306   -22.158372   -81.593803   -101.44574    99.924456    99.972542    100.60419 
   11200    142.27655   -17599.563   -36.143776   -7.1383398   -72.613781   -28.679207    99.922019    99.952008    100.63747 
   11300    145.63357   -17599.609   -28.731334   -59.209296   -12.035956   -14.948751    99.919097    99.924387    100.66302 
   11400    149.00119   -17599.675    43.917737   -6.1993244    85.081753    52.870781    99.910377    99.898865    100.68391 
   11500    153.48711   -17599.747    68.699156    84.156502    88.642098    33.298867    99.900766    99.881991    100.71051 
   11600    160.55646   -17599.832    7.5692171    -50.47725    60.292864    12.892037    99.897771    99.874724    100.73893 
   11700     165.8778   -17599.937    -62.47494   -75.763808    1.4988411   -113.15985    99.888548    99.872409    100.76608 
   11800    166.01232    -17600.05   -26.791378    -18.35076     64.91393    -126.9373     99.87135    99.869175    100.78412 
   11900    171.55551   -17600.188    -30.74857    -3.703176   -58.146366   -30.396169    99.850165    99.870497    100.79096 
   12000    174.27561   -17600.348    6.0270485    26.580079   -61.760899    53.261965    99.824674     99.86591    100.79525 
   12100    177.72876   -17600.521    14.080927    14.968311    38.689749   -11.415279    99.798417    99.856217    100.80524 
   12200    177.50502   -17600.698    60.491631    30.459931    54.109727    96.905235     99.77659    99.848712    100.81988 
   12300    183.96919   -17600.907    70.265349    27.138512    16.026669    167.63086    99.763828    99.844124    100.84438 
   12400     188.0542   -17601.169    41.287736    12.095932   -23.800393    135.56767     99.76046    99.840144    100.88742 
   12500    193.55348   -17601.454     27.09373    2.0217431    15.180442    64.079004    99.761501    99.833709    100.95047 
   12600    199.73937   -17601.749   -64.867989   -49.664536   -149.54229    4.6028637    99.762728      99.8224    101.02691 
   12700     208.1497   -17602.002   -25.884101   -56.264361   -17.381971   -4.0059717    99.757236    99.796304    101.10122 
   12800    217.19414   -17602.328   -37.227527   -42.843732   -62.683314    -6.155534     99.74574     99.75795     101.1712 
   12900    220.11283   -17602.618   -16.717452   -10.742882   -63.510855    24.101383    99.730244    99.711315    101.23954 
   13000    227.42441   -17602.934    48.058007    -12.12496    169.37177   -13.072787    99.715383    99.662601    101.30774 
   13100    226.93339   -17603.192   -3.0027976    6.0792932    101.47741   -116.56509    99.702036    99.631668    101.37457 
   13200    231.42034   -17603.452   -4.3088145    47.703975    57.300693   -117.93111    99.691832    99.614352    101.42572 
   13300    238.12056   -17603.761    37.777666    41.493595    69.300328    2.5390746    99.686886    99.603522    101.45986 
   13400    245.64911   -17604.092   -66.441431   -47.253043   -71.995514   -80.075735    99.686378    99.600255    101.49096 
   13500    249.11996   -17604.432   -151.50689    -176.7204   -175.31478    -102.4855    99.682716    99.595039    101.51181 
   13600    254.25576   -17604.813    -25.72266    52.423718   -27.378865   -102.21283    99.665294    99.572481    101.51931 
   13700    267.23912   -17605.198   -16.769485   -22.037799   -28.036612   -0.2340441    99.653783    99.539849     101.5172 
   13800    272.54619   -17605.596    48.682439    23.422175    42.547555    80.077588    99.646603    99.505421    101.51335 
   13900    280.27449   -17606.026     104.1266    102.27642    34.703875    175.39949    99.642059     99.47684    101.51954 
   14000    284.43077   -17606.508    89.678319     82.68054    125.52926    60.825152    99.647394    99.455731    101.54974 
   14100    292.91424   -17607.012   -28.047861   -49.861016   -14.230245   -20.052323    99.659739    99.445948    101.59607 
   14200    291.93739   -17607.518   -72.321498   -92.937449   -104.13408   -19.892963     99.66466    99.435941    101.64004 
   14300    305.33071   -17608.061   -36.412521   -80.889324    53.503957   -81.852196    99.658508    99.419454     101.6772 
   14400    317.16469   -17608.645   -136.94406   -160.56042   -37.726212   -212.54554    99.645884    99.403789    101.69569 
   14500    327.24674   -17609.292   -19.283345    11.624507   -32.832847   -36.641694    99.623328    99.381383    101.68679 
   14600    326.63451   -17609.944    83.457441    142.61405    100.18231     7.575963    99.600987     99.36047    101.67152 
   14700    331.87635   -17610.639     34.37885    62.686138      114.667   -74.216589    99.593225    99.354163    101.65343 
   14800    347.66847   -17611.407    -19.68208    87.147632   -15.249566   -130.94431    99.600545    99.358282     101.6251 
   14900    355.12952   -17612.223   -13.609041   -44.360834    17.112848   -13.579137    99.622536    99.361343    101.58207 
   15000    355.94739   -17613.031   -68.955485   -78.746394   -125.06883   -3.0512259    99.642312    99.359075    101.53787 
   15100    366.21867   -17613.898    13.761634     59.69092    10.667517   -29.073535    99.649379    99.344613    101.49495 
   15200    371.44784   -17614.818   -78.113371   -57.585896   -16.641318    -160.1129     99.65958    99.325028    101.44752 
   15300    381.15534   -17615.787    32.579136   -16.977904    139.62728   -24.911973    99.660529    99.307656    101.38891 
   15400    387.55999   -17616.763    20.593096   -21.515447    150.61021   -67.315475    99.653852    99.303289    101.33001 
   15500    399.14176   -17617.826    40.219278    100.57148   0.87976142    19.206593    99.652534    99.315082    101.26502 
   15600    407.11564   -17618.887    8.7381256     23.02392    41.426641   -38.236184    99.660067    99.333858    101.20202 
   15700     420.9747   -17620.038   -57.597825   -35.796687   -60.778998   -76.217792    99.668871    99.353882    101.13575 
   15800    426.07184   -17621.248   -20.897131    57.034601    -59.62758   -60.098415     99.67057    99.373127    101.06316 
   15900    435.57423   -17622.525   -34.254819    15.530272    10.554992   -128.84972     99.67394    99.387579    100.98419 
   16000     440.4345   -17623.827   -71.782464   -62.779763   -145.10863    -7.459003    99.676305    99.394375    100.89759 
   16100    457.99532    -17625.13   -13.554026   -86.076324    -184.6801    230.09435    99.671915     99.38582    100.81721 
   16200    469.37019   -17626.491    93.679018    65.346541     93.17927    122.51124    99.658357    99.362369     100.7618 
   16300     483.5809   -17627.914     152.7549    209.99743    -29.53288    277.80017    99.653071    99.345395    100.72904 
   16400    486.33464   -17629.453    146.20803    176.81127   -101.29666    363.10949     99.66654    99.337184    100.72807 
   16500    488.05047   -17631.115    109.72903    -17.43674    1.4014188    345.22241      99.6962    99.329893    100.76393 
   16600    485.11716   -17632.806   -4.0890594   -94.439821    5.2481521    76.924491    99.730079    99.323971     100.8325 
   16700    502.32449   -17634.476   -104.10466   -107.99884   -169.35784   -34.957299     99.75645    99.314812    100.91403 
   16800     491.4603   -17636.121   -48.118129   -247.31205    80.481492    22.476173    99.769217    99.291613    100.98924 
   16900    505.44742   -17637.844   -44.540705   -206.56783    83.413961   -10.468251    99.752544    99.273051    101.05859 
   17000    505.98162   -17639.562    46.172447     182.7068    74.751991   -118.94145    99.721277    99.263281    101.12167 
   17100    509.79364   -17641.314    54.130901    171.07933    19.094273   -27.780898    99.705744    99.263801    101.17472 
   17200     507.8702   -17643.094   -38.439461    69.684474   -61.624016   -123.37884     99.70896    99.270863    101.21644 
   17300    510.83851   -17644.921    27.623145    141.26031  -0.56118859   -57.829689     99.72633    99.270403    101.23965 
   17400     521.6637   -17646.806     16.43882   -35.237427    44.189629    40.364258     99.75744    99.268847    101.25185 
   17500    518.58091   -17648.697   -82.752236   -103.65836   -54.845154   -89.753189    99.785176    99.267486    101.26224 
   17600    522.49123   -17650.608    11.149897    4.1971866   -44.122359    73.374863    99.799521    99.258536    101.26554 
   17700    525.72023   -17652.582    19.898401   -38.741366    40.858664    57.577903    99.809627    99.248933    101.27462 
   17800    519.06319   -17654.558   -19.696821   -96.286295   -40.612176    77.808009    99.814032    99.244021    101.29462 
   17900    517.83993   -17656.573    -11.08452   -54.936332   -75.524675    97.207448    99.809679    99.238893    101.32611 
   18000    528.03558   -17658.601    50.151826    12.147521    82.916189    55.391769    99.802385    99.226837    101.36839 
   18100    528.78291   -17660.679    53.531757   -18.875436    21.808737    157.66197    99.795939    99.221877    101.42055 
   18200    533.60051   -17662.827    80.426448    150.83091   -42.888415    133.33685    99.789513    99.219271    101.49186 
   18300    528.24675   -17664.986    35.995647    53.029259   -3.7929383    58.750621    99.794824    99.213766    101.58318 
   18400    538.75138   -17667.084    13.362585   -59.619548    93.555761    6.1515423    99.807959    99.211535    101.67826 
   18500     532.6843   -17669.181   -57.980327    -2.986886   -43.980978   -126.97312    99.817003    99.219834    101.76678 
   18600    532.77453   -17671.268   -140.05625   -155.06423   -118.13613   -146.96839    99.814422    99.222642    101.84121 
   18700    540.01188   -17673.398    10.339134   0.45175411    114.21803   -83.652386    99.797457    99.213378    101.89615 
   18800    538.64124   -17675.563    16.275902   -10.955383     152.8303   -93.047209     99.78265    99.215006     101.9364 
   18900     537.4002   -17677.785    7.9565991    14.097786    39.044033   -29.272021    99.767044    99.235733    101.96705 
   19000    537.64729   -17680.015    -11.43068   -37.667321   -7.7020385    11.077319    99.748252    99.264958    101.99261 
   19100    542.64408   -17682.233     26.36352    147.96591   -1.8042186   -67.071129    99.732437    99.292532    102.01308 
   19200    541.14809   -17684.472   -14.631544    75.110451   -170.20901    51.203929    99.731256    99.318516    102.02617 
   19300    533.30045   -17686.718    38.581582    192.58087   -161.65665    84.820528    99.739122    99.323167    102.04325 
   19400     543.7518   -17689.004   -41.177133   -83.804038   -112.87526    73.147896    99.756718    99.304577    102.07146 
   19500    539.85889     -17691.3    31.300564    112.54221    10.482297   -29.122814    99.770336    99.278342    102.10688 
   19600    542.74477   -17693.611    18.133125   -60.571426    39.981133    74.989666    99.789086     99.25378    102.14641 
   19700    541.31501   -17695.966    109.82905   -64.094153    166.64931    226.93201    99.801948     99.23597     102.2007 
   19800     541.3534   -17698.356    8.0018867   -50.238655    65.201472    9.0428426    99.810194      99.2311    102.27871 
   19900    535.69828   -17700.699    12.414368   -139.27453    162.11805    14.399586    99.808663    99.234948    102.36576 
   20000    539.42487   -17703.044    -10.65015    48.121508    18.030713   -98.102671    99.794943    99.249829    102.45287 
Loop time of 22.5773 on 28 procs for 10000 steps with 5538 atoms

Performance: 38.268 ns/day, 0.627 hours/ns, 442.922 timesteps/s
99.9% CPU use with 28 MPI tasks x 1 OpenMP threads

MPI task timing breakdown:
Section |  min time  |  avg time  |  max time  |%varavg| %total
---------------------------------------------------------------
Pair    | 12.509     | 18.293     | 20.973     |  76.0 | 81.02
Neigh   | 0.059011   | 0.21458    | 0.30852    |  20.3 |  0.95
Comm    | 0.67098    | 3.1599     | 8.1182     | 170.8 | 14.00
Output  | 0.0092735  | 0.009379   | 0.010334   |   0.2 |  0.04
Modify  | 0.2626     | 0.87381    | 1.8568     |  56.1 |  3.87
Other   |            | 0.0265     |            |       |  0.12

Nlocal:    197.786 ave 283 max 48 min
Histogram: 8 0 0 0 0 0 0 1 14 5
Nghost:    354.75 ave 460 max 168 min
Histogram: 8 0 0 0 0 0 0 2 11 7
Neighs:    1944.32 ave 2944 max 185 min
Histogram: 4 4 0 0 0 0 0 2 14 4
FullNghs:  3888.64 ave 5819 max 683 min
Histogram: 8 0 0 0 0 0 0 2 14 4

Total # of neighbors = 108882
Ave neighs/atom = 19.6609
Neighbor list builds = 742
Dangerous builds = 22
Initial Length, L0: 102.452873705138
Setting up Verlet run ...
  Unit style  : metal
  Current step: 0
  Time step   : 0.001
Memory usage per processor = 10.799 Mbytes
Step Temp TotEng Press Pxx Pyy Pzz Lx Ly Lz 
       0    539.42487   -17703.044    -10.65015    48.121508    18.030713   -98.102671    99.794943    99.249829    102.45287 
     100    538.47501   -17703.209   -24.108702   -59.105226    85.819326   -99.040207    99.794943    99.249829     102.4539 
     200    546.93475   -17703.716    107.77965    53.222513    69.557512    200.55894    99.794943    99.249829    102.45492 
     300    537.18737   -17704.563    60.565586    103.06883    34.969738     43.65819    99.794943    99.249829    102.45595 
     400    546.16195   -17705.724    27.346356   -60.172556     53.54205    88.669573    99.794943    99.249829    102.45697 
     500     541.3535   -17707.129    4.9038811   -31.782213   -93.552361    140.04622    99.794943    99.249829      102.458 
     600    542.28297   -17708.699   -29.468577   -53.261578   -212.04789    176.90373    99.794943    99.249829    102.45902 
     700    540.45845   -17710.312    41.050967    14.847609   -190.13058    298.43587    99.794943    99.249829    102.46005 
     800    545.93168   -17711.884    132.23479    48.041898    8.9652783    339.69719    99.794943    99.249829    102.46107 
     900    546.62998   -17713.376    113.99935    11.332078    97.255499    233.41047    99.794943    99.249829    102.46209 
    1000    536.08709   -17714.785    80.215337   -58.274185   -2.7412532    301.66145    99.794943    99.249829    102.46312 
    1100    546.07329   -17716.183    135.87368     53.98123    106.14018    247.49962    99.794943    99.249829    102.46414 
    1200    536.85386   -17717.582    32.080962   -59.126382    59.163058    96.206211    99.794943    99.249829    102.46517 
    1300    543.40681   -17719.043    74.633155    3.5049961    67.947429    152.44704    99.794943    99.249829    102.46619 
    1400    544.58357   -17720.573    106.89193    63.424638     23.90125     233.3499    99.794943    99.249829    102.46722 
    1500    536.97501   -17722.183    30.068234   -68.728187    128.75723    30.175662    99.794943    99.249829    102.46824 
    1600    540.04235    -17723.88    63.812802    26.919747   -6.8781612    171.39682    99.794943    99.249829    102.46927 
    1700    534.42103   -17725.633    7.5144676    45.388639   -24.628914     1.783678    99.794943    99.249829    102.47029 
    1800    535.15494   -17727.442   -36.783716    48.371764   -60.832703   -97.890208    99.794943    99.249829    102.47132 
    1900     537.6538   -17729.298   -30.090611   -14.848939   0.41435426   -75.837247    99.794943    99.249829    102.47234 
    2000    529.91302   -17731.173   -114.29106   -10.066825   -148.10857   -184.69777    99.794943    99.249829    102.47336 
    2100    534.60221   -17733.078    1.3500878    172.74414   -17.118885   -151.57499    99.794943    99.249829    102.47439 
    2200    536.79924   -17735.029   -98.567685    223.08116   -224.36632   -294.41789    99.794943    99.249829    102.47541 
    2300    534.98409    -17736.98   -103.53881   -83.499079    23.797697   -250.91506    99.794943    99.249829    102.47644 
    2400    529.89189   -17738.942   -187.83857   -138.66589   -92.762072   -332.08776    99.794943    99.249829    102.47746 
    2500    527.74986   -17740.941   -110.32128   -11.495182   -95.680322   -223.78832    99.794943    99.249829    102.47849 
    2600    531.26609   -17742.955   -25.062293    25.248913    110.60476   -211.04055    99.794943    99.249829    102.47951 
    2700    540.36772   -17744.995   -43.111442    30.964001    75.740957   -236.03928    99.794943    99.249829    102.48054 
    2800    534.58747   -17747.052   -57.425091   -195.51765    151.65092   -128.40854    99.794943    99.249829    102.48156 
    2900    530.27463   -17749.122    24.732006    54.369341    46.253152   -26.426476    99.794943    99.249829    102.48259 
    3000    529.69757   -17751.212   -73.233529   -45.247848   -75.169884   -99.282855    99.794943    99.249829    102.48361 
    3100    525.49125   -17753.325   -5.8865406   -55.596093    109.20718   -71.270707    99.794943    99.249829    102.48463 
    3200    535.56734   -17755.442   -29.686895   -88.611817    55.033702    -55.48257    99.794943    99.249829    102.48566 
    3300    525.41066   -17757.575    45.820268    76.005446    40.720381    20.734977    99.794943    99.249829    102.48668 
    3400    528.36456   -17759.702    125.08329    93.301434    43.304936    238.64351    99.794943    99.249829    102.48771 
    3500    518.94401   -17761.852    56.631833    43.519337   -65.130891    191.50705    99.794943    99.249829    102.48873 
    3600    524.16422   -17764.012     53.14662    25.966837   -37.713602    171.18662    99.794943    99.249829    102.48976 
    3700    529.43712   -17766.184    49.671048    44.851701   -181.42333    285.58477    99.794943    99.249829    102.49078 
    3800    517.19657   -17768.367    92.105581    177.91285   -219.26278    317.66667    99.794943    99.249829    102.49181 
    3900    516.27664   -17770.552    52.737984    28.785028   -45.230056    174.65898    99.794943    99.249829    102.49283 
    4000    517.67327   -17772.752    74.979907    104.60471   -47.632769    167.96778    99.794943    99.249829    102.49385 
    4100    510.22448   -17774.946    66.176603    101.64152   -105.49305    202.38133    99.794943    99.249829    102.49488 
    4200    511.02464   -17777.146     25.28143   -3.4371566   -96.707006    175.98845    99.794943    99.249829     102.4959 
    4300    520.00115   -17779.351    26.122936   -166.85003    107.86762    137.35121    99.794943    99.249829    102.49693 
    4400    516.09829   -17781.571    -14.81612    -245.5883    112.03165    89.108287    99.794943    99.249829    102.49795 
    4500    507.93001   -17783.801    32.892018   -57.405579    62.959246    93.122387    99.794943    99.249829    102.49898 
    4600    514.90345   -17786.026    85.993843   -87.582695    166.35732    179.20691    99.794943    99.249829        102.5 
    4700    508.39268   -17788.259    46.496505   -9.8619906     126.1168    23.234702    99.794943    99.249829    102.50103 
    4800    508.55187   -17790.483   -7.8528677    34.465933   -2.5774347   -55.447101    99.794943    99.249829    102.50205 
    4900    509.75666   -17792.725   -65.992348   -74.131347    28.082341   -151.92804    99.794943    99.249829    102.50308 
    5000     505.5184   -17794.963   -129.84624   -13.680237   -110.96686   -264.89161    99.794943    99.249829     102.5041 
    5100    507.47872     -17797.2    6.2945887    137.94311    -32.90373   -86.155611    99.794943    99.249829    102.50512 
    5200    497.67732   -17799.422   -76.891053    20.081826   -26.671789    -224.0832    99.794943    99.249829    102.50615 
    5300    507.03779    -17801.67   -45.978438    85.458249   -78.426986   -144.96658    99.794943    99.249829    102.50717 
    5400    496.36679   -17803.914   -32.064682    18.000888    88.091854   -202.28679    99.794943    99.249829     102.5082 
    5500     499.0878   -17806.139   -23.103769    94.278073    3.2161686   -166.80555    99.794943    99.249829    102.50922 
    5600    501.27796   -17808.389   -29.175237    44.706004    84.844217   -217.07593    99.794943    99.249829    102.51025 
    5700    495.10609   -17810.635   -112.49903   -48.756974   -53.044394   -235.69573    99.794943    99.249829    102.51127 
    5800       498.41   -17812.888    -73.41762   -55.461216    3.2661166   -168.05776    99.794943    99.249829     102.5123 
    5900    489.99143   -17815.121   -99.211644   -36.616519   -95.904462   -165.11395    99.794943    99.249829    102.51332 
    6000    483.97831   -17817.357   -54.600954   -65.127582   -16.011977   -82.663302    99.794943    99.249829    102.51435 
    6100    483.79264   -17819.587   -48.069044   -48.569182   -5.5259201   -90.112031    99.794943    99.249829    102.51537 
    6200    491.53841   -17821.817    93.221639    50.571205    188.28846    40.805253    99.794943    99.249829    102.51639 
    6300    488.55621   -17824.045    82.269992    24.227166    150.54972    72.033089    99.794943    99.249829    102.51742 
    6400    485.26529    -17826.28    86.350164     65.55663    88.446496    105.04737    99.794943    99.249829    102.51844 
    6500    487.98038   -17828.526    31.949077    29.554738    9.5962595    56.696233    99.794943    99.249829    102.51947 
    6600    491.74751   -17830.779    30.093165    77.039441   -191.99007    205.23012    99.794943    99.249829    102.52049 
    6700    483.22895    -17833.02   -58.925078    3.5488855   -152.82382   -27.500303    99.794943    99.249829    102.52152 
    6800    482.75413   -17835.254    25.375413    123.92168   -176.64031    128.84487    99.794943    99.249829    102.52254 
    6900    482.12567   -17837.496    29.047251    78.606477   -102.39669    110.93196    99.794943    99.249829    102.52357 
    7000    483.13392   -17839.748    19.710565    -93.16722   -16.562422    168.86134    99.794943    99.249829    102.52459 
    7100    486.61848   -17841.994    92.406216    8.9879255    34.581644    233.64908    99.794943    99.249829    102.52562 
    7200    473.71737   -17844.244    119.81283   -64.692488    201.47141    222.65956    99.794943    99.249829    102.52664 
    7300    485.37904   -17846.493    116.90883    144.07703   -13.039731    219.68918    99.794943    99.249829    102.52766 
    7400    470.35916   -17848.727    78.115184    16.664425     79.58873     138.0924    99.794943    99.249829    102.52869 
    7500    476.68233   -17850.973   -23.240788    -157.5353    40.294724    47.518209    99.794943    99.249829    102.52971 
    7600    476.47891   -17853.212    24.054318   -97.848019    40.535364    129.47561    99.794943    99.249829    102.53074 
    7700    469.41617   -17855.443   -27.897566   -110.99702    -52.66419    79.968507    99.794943    99.249829    102.53176 
    7800     476.0031   -17857.669   -21.994564   -66.903766   -18.723767    19.643843    99.794943    99.249829    102.53279 
    7900    470.26371   -17859.908   -10.626321    113.18476   -104.26438   -40.799346    99.794943    99.249829    102.53381 
    8000    474.01008    -17862.13   -37.977662     62.87766   -133.79915   -43.011494    99.794943    99.249829    102.53484 
    8100     464.3109   -17864.341   -33.161171    69.816013   -18.605461   -150.69407    99.794943    99.249829    102.53586 
    8200    459.87319   -17866.555    15.627188    149.32849   -39.331783   -63.115142    99.794943    99.249829    102.53689 
    8300    468.03651   -17868.771    23.318593    101.23664    27.790533    -59.07139    99.794943    99.249829    102.53791 
    8400    461.55129   -17870.978    24.997059    142.11542    25.478236   -92.602476    99.794943    99.249829    102.53893 
    8500    465.00963   -17873.199    -14.64036    36.723213    10.745038   -91.389332    99.794943    99.249829    102.53996 
    8600    459.06322   -17875.404   -59.450848   -3.1099515    56.396265   -231.63886    99.794943    99.249829    102.54098 
    8700    465.78534   -17877.621   -77.643344   -86.967733    47.595495   -193.55779    99.794943    99.249829    102.54201 
    8800    458.44416   -17879.823   -58.227293   -177.72392    167.49134    -164.4493    99.794943    99.249829    102.54303 
    8900    463.29816   -17882.028    -104.3008    1.0658156   -140.96643   -173.00177    99.794943    99.249829    102.54406 
    9000    457.11049   -17884.226   -119.24258   -57.457919   -143.56841   -156.70141    99.794943    99.249829    102.54508 
    9100    458.95381   -17886.423    2.1553167    81.710122    59.929499   -135.17367    99.794943    99.249829    102.54611 
    9200    455.74041   -17888.598   -49.985021   -78.339004    89.793602   -161.40966    99.794943    99.249829    102.54713 
    9300    451.72461   -17890.776   -29.981035    50.787309    28.097312   -168.82773    99.794943    99.249829    102.54815 
    9400    451.98873   -17892.945   -9.4022941    63.962944    45.046818   -137.21664    99.794943    99.249829    102.54918 
    9500     453.9978   -17895.115    39.993238    -15.77598    190.96971   -55.214013    99.794943    99.249829     102.5502 
    9600    442.80213   -17897.282    24.664699    36.263365   -33.358124    71.088856    99.794943    99.249829    102.55123 
    9700    450.54112   -17899.446   -2.7809609   -15.042125   -145.86538    152.56462    99.794943    99.249829    102.55225 
    9800    441.35741   -17901.598   -56.833371   -46.238257   -160.80693    36.545074    99.794943    99.249829    102.55328 
    9900    447.26276   -17903.738   -31.114511    -80.56608   -188.83565     176.0582    99.794943    99.249829     102.5543 
   10000    448.59601   -17905.878    17.643647    72.837376   -127.63023    107.72379    99.794943    99.249829    102.55533 
   10100    436.28532    -17908.01    31.864572    -21.68554   -59.391443     176.6707    99.794943    99.249829    102.55635 
   10200    446.47562   -17910.143    51.335274   -21.190391    61.455191    113.74102    99.794943    99.249829    102.55738 
   10300    435.07495   -17912.273    114.65724    46.924155    91.220018    205.82756    99.794943    99.249829     102.5584 
   10400    437.48799   -17914.384     199.3985    100.97588    239.28266    257.93696    99.794943    99.249829    102.55942 
   10500    434.31297   -17916.499     172.8582    45.323977    288.16693     185.0837    99.794943    99.249829    102.56045 
   10600    435.76219   -17918.607    56.069743   -51.516464   -12.269771    231.99546    99.794943    99.249829    102.56147 
   10700    431.23952   -17920.701   -30.047873   -31.474899   -76.125996    17.457275    99.794943    99.249829     102.5625 
   10800    432.76196   -17922.809    -52.37546   -136.23585   -80.745083    59.854547    99.794943    99.249829    102.56352 
   10900    428.33175   -17924.898   -55.437705   -39.573734   -177.16794     50.42856    99.794943    99.249829    102.56455 
   11000    430.81678   -17926.975   -169.54523   -236.63012   -188.24145   -83.764105    99.794943    99.249829    102.56557 
   11100    426.82167   -17929.037   -2.7388517   -14.027382    14.435603   -8.6247763    99.794943    99.249829     102.5666 
   11200    428.85389   -17931.117    87.826577    99.332859    74.302912     89.84396    99.794943    99.249829    102.56762 
   11300    426.00338   -17933.185    33.420326   -50.422287    121.32989    29.353378    99.794943    99.249829    102.56865 
   11400    421.55146   -17935.249    48.267053    108.67696    83.495329   -47.371133    99.794943    99.249829    102.56967 
   11500    425.84973   -17937.315    37.827917    133.15279    55.694748   -75.363788    99.794943    99.249829    102.57069 
   11600    421.46914   -17939.372    -43.83116    48.415778     3.252296   -183.16155    99.794943    99.249829    102.57172 
   11700    419.34034   -17941.427   -62.534938    164.68624   -136.07305   -216.21801    99.794943    99.249829    102.57274 
   11800    422.87887    -17943.48   -84.361999   -38.720296   -6.4214096   -207.94429    99.794943    99.249829    102.57377 
   11900    418.04488   -17945.522   -112.03251   -173.60383   -106.28616   -56.207561    99.794943    99.249829    102.57479 
   12000    417.05008   -17947.557   -98.245706   -136.09449   -100.53524   -58.107389    99.794943    99.249829    102.57582 
   12100    414.67637    -17949.57   -37.757242   -118.78689   -3.9743586    9.4895241    99.794943    99.249829    102.57684 
   12200     410.9969   -17951.588   -45.078292    -69.11998   -24.179219   -41.935679    99.794943    99.249829    102.57787 
   12300    413.28709   -17953.603    61.623949    101.41719    120.21601   -36.761353    99.794943    99.249829    102.57889 
   12400    410.58491   -17955.612    87.560991    69.862469    203.48281   -10.662309    99.794943    99.249829    102.57992 
   12500    414.59809   -17957.618    107.20618    142.31526    191.99865    -12.69537    99.794943    99.249829    102.58094 
   12600     405.6282   -17959.621    16.270712    164.00629    -85.43406    -29.76009    99.794943    99.249829    102.58196 
   12700    407.03147   -17961.601   -61.616374   -47.975934   -51.497068   -85.376118    99.794943    99.249829    102.58299 
   12800    404.55816   -17963.577   -71.761321   -74.852429   -128.67512   -11.756417    99.794943    99.249829    102.58401 
   12900    402.67522   -17965.541   -95.560252   -125.37441   -109.16652   -52.139824    99.794943    99.249829    102.58504 
   13000    399.42678   -17967.502    -84.06941   -123.31361   -76.516685   -52.377935    99.794943    99.249829    102.58606 
   13100    402.58534   -17969.456   -1.2286771   -15.123074   -65.635531    77.072574    99.794943    99.249829    102.58709 
   13200    405.63347   -17971.421    136.94865    78.330578    93.975698    238.53969    99.794943    99.249829    102.58811 
   13300    399.13476   -17973.371    75.151964   -8.0052787    88.659411    144.80176    99.794943    99.249829    102.58914 
   13400    395.37829   -17975.312    98.477019    63.350618    99.337982    132.74246    99.794943    99.249829    102.59016 
   13500     397.8481   -17977.254    86.111948    33.016926    98.340095    126.97882    99.794943    99.249829    102.59119 
   13600    397.97897   -17979.179     7.281992   -16.937709    16.679758    22.103927    99.794943    99.249829    102.59221 
   13700     393.6611   -17981.097   -49.639936   -106.29054   -34.582832   -8.0464392    99.794943    99.249829    102.59323 
   13800    396.99351   -17983.018   -96.406732   -160.69138   -88.069018     -40.4598    99.794943    99.249829    102.59426 
   13900    391.80859   -17984.921   -65.513838   -20.911736   -84.556444   -91.073333    99.794943    99.249829    102.59528 
   14000    392.99516   -17986.823    55.986875    147.11699    11.398336    9.4453017    99.794943    99.249829    102.59631 
   14100    389.26714   -17988.708    69.121349   -45.215156    102.84001     149.7392    99.794943    99.249829    102.59733 
   14200    383.92952   -17990.589    65.484843    16.583411    96.826295    83.044825    99.794943    99.249829    102.59836 
   14300    387.08229   -17992.457    53.908103     172.1363    39.033153   -49.445149    99.794943    99.249829    102.59938 
   14400    385.98302   -17994.327   -4.7688025     15.59075   -50.055855    20.158697    99.794943    99.249829    102.60041 
   14500    383.69005   -17996.183   -14.458417   -48.002762   -2.4181543    7.0456651    99.794943    99.249829    102.60143 
   14600    386.64945   -17998.036   -23.903266    67.582131   -46.250324   -93.041603    99.794943    99.249829    102.60245 
   14700    380.84058   -17999.887   -97.647713   -149.53189    23.371622   -166.78287    99.794943    99.249829    102.60348 
   14800    378.99666   -18001.722   -112.25234   -58.367421   -170.28367   -108.10594    99.794943    99.249829     102.6045 
   14900    374.00917   -18003.561      7.82851    24.524616    14.864652   -15.903737    99.794943    99.249829    102.60553 
   15000     377.1548   -18005.385   -70.323583   -94.543007    2.9852293   -119.41297    99.794943    99.249829    102.60655 
   15100    372.34649   -18007.196   -46.948451   -108.23639    53.403532   -86.012496    99.794943    99.249829    102.60758 
   15200    369.38438   -18009.001    40.738881    20.132668     77.01823    25.065745    99.794943    99.249829     102.6086 
   15300    369.99663   -18010.793    64.040325    92.424039    102.15252   -2.4555829    99.794943    99.249829    102.60963 
   15400    373.89753   -18012.591    9.7691535    84.242848    6.4179358   -61.353324    99.794943    99.249829    102.61065 
   15500     371.7016   -18014.373    8.0136536    11.781807    -14.35934    26.618494    99.794943    99.249829    102.61168 
   15600    368.20108   -18016.148     -7.03642    26.633146   -11.789878   -35.952527    99.794943    99.249829     102.6127 
   15700    370.73314   -18017.911   -2.5918027  -0.78959416   -105.64314    98.657327    99.794943    99.249829    102.61372 
   15800    362.07127   -18019.672    4.7798874    -18.16192     59.01404   -26.512458    99.794943    99.249829    102.61475 
   15900    366.52182   -18021.436   -44.949006   -85.346911   -23.570044   -25.930063    99.794943    99.249829    102.61577 
   16000    365.58134   -18023.191   -18.806993   -22.665851   -66.122537    32.367408    99.794943    99.249829     102.6168 
   16100    362.10502    -18024.93    48.837837    57.995242      75.5536     12.96467    99.794943    99.249829    102.61782 
   16200    364.25554   -18026.668    97.470434    93.191611    10.772295     188.4474    99.794943    99.249829    102.61885 
   16300    359.73998   -18028.401    42.111981    174.00968    42.135697   -89.809437    99.794943    99.249829    102.61987 
   16400    357.35926   -18030.129    -16.63372   -8.6213854    78.658651   -119.93843    99.794943    99.249829     102.6209 
   16500    358.51377   -18031.841   -16.581798    -66.02266   -20.609641    36.886907    99.794943    99.249829    102.62192 
   16600    358.77645   -18033.556    13.241379   -55.108396   -14.555726    109.38826    99.794943    99.249829    102.62295 
   16700    354.95122   -18035.255    24.412905    50.514577   -34.224244    56.948383    99.794943    99.249829    102.62397 
   16800    357.20724   -18036.954   -15.378418   -60.965308   -3.0684901    17.898544    99.794943    99.249829    102.62499 
   16900    354.25127   -18038.655    10.285915   -21.689081    9.6097728    42.937053    99.794943    99.249829    102.62602 
   17000    350.60934   -18040.337    26.748761   -55.280579    102.82451    32.702346    99.794943    99.249829    102.62704 
   17100    353.22619   -18042.012    35.285325    30.071338    -2.086972     77.87161    99.794943    99.249829    102.62807 
   17200    349.36988   -18043.673   -3.0112363   -37.426306    57.678906    -29.28631    99.794943    99.249829    102.62909 
   17300    348.25377   -18045.334  -0.63301334    43.535112    7.9372503   -53.371402    99.794943    99.249829    102.63012 
   17400    346.22153   -18046.989    38.023919    33.689477    56.953024    23.429255    99.794943    99.249829    102.63114 
   17500     343.6062   -18048.634   -53.699199    -40.48465   -75.702091   -44.910855    99.794943    99.249829    102.63217 
   17600     347.2358   -18050.268   -80.271726    -56.93893   -90.207338   -93.668911    99.794943    99.249829    102.63319 
   17700    339.91283   -18051.899   -89.330337   -129.15947   -42.851198   -95.980343    99.794943    99.249829    102.63422 
   17800    341.17603   -18053.524   -25.620254    50.973025   -39.995535   -87.838253    99.794943    99.249829    102.63524 
   17900    340.16275   -18055.141    96.016623    220.68034    68.898321   -1.5287946    99.794943    99.249829    102.63626 
   18000    343.31219   -18056.753    60.984909    98.373666     131.6917   -47.110637    99.794943    99.249829    102.63729 
   18100    335.94826   -18058.345    21.207936    39.162422    54.866227    -30.40484    99.794943    99.249829    102.63831 
   18200    336.77336   -18059.935    -30.60454    17.872763    -13.54044   -96.145942    99.794943    99.249829    102.63934 
   18300    337.15857    -18061.52   -43.355585   -99.834083    27.410838   -57.643511    99.794943    99.249829    102.64036 
   18400    334.60808   -18063.105   -131.94782   -187.34203   -94.648778   -113.85266    99.794943    99.249829    102.64139 
   18500    334.89189   -18064.672   -86.493966   -21.895153   -94.282977   -143.30377    99.794943    99.249829    102.64241 
   18600    336.19459   -18066.237   -40.743652    -83.45353   -32.452552   -6.3248739    99.794943    99.249829    102.64344 
   18700    331.00926   -18067.793    14.266734    69.703842   -114.82555    87.921911    99.794943    99.249829    102.64446 
   18800    331.13132   -18069.346    57.096824    58.741554    83.599917    28.949002    99.794943    99.249829    102.64549 
   18900    330.72943   -18070.894    49.733092    115.60846    1.7122577    31.878562    99.794943    99.249829    102.64651 
   19000    326.16132   -18072.436    104.09087    77.506969    126.97245    107.79317    99.794943    99.249829    102.64753 
   19100    325.38547   -18073.971    38.789347   -42.311952    105.05924    53.620754    99.794943    99.249829    102.64856 
   19200    323.99067   -18075.498   -7.7087894   -61.921495    -19.33588    58.131007    99.794943    99.249829    102.64958 
   19300    324.70911   -18077.017   -43.425106   -139.56461   -30.845831    40.135119    99.794943    99.249829    102.65061 
   19400      323.451   -18078.528   -19.529788    8.8684949   -108.16716    40.709297    99.794943    99.249829    102.65163 
   19500     320.8342   -18080.035   -15.973198    -76.30166   -52.524151    80.906216    99.794943    99.249829    102.65266 
   19600    318.82149   -18081.517     18.61555    19.822837   -24.434161    60.457976    99.794943    99.249829    102.65368 
   19700    319.33623   -18083.005    25.092516    43.111402   -8.3074021     40.47355    99.794943    99.249829    102.65471 
   19800    322.88186   -18084.487    29.204801    25.056697   -24.573674     87.13138    99.794943    99.249829    102.65573 
   19900    318.36585   -18085.968    57.200438   -4.3626433    72.965966    102.99799    99.794943    99.249829    102.65675 
   20000    319.22842   -18087.443     36.01174    13.757509    3.8394451    90.438264    99.794943    99.249829    102.65778 
   20100     322.1335   -18088.909    71.961781    27.470883     35.68395    152.73051    99.794943    99.249829     102.6588 
   20200    316.02432   -18090.368   -9.4400632   -41.700948    10.398659    2.9820993    99.794943    99.249829    102.65983 
   20300    315.38515   -18091.824   -24.962858   -63.085023   -19.859286    8.0557342    99.794943    99.249829    102.66085 
   20400     309.8044   -18093.262   -26.795907   -77.452667    59.584498   -62.519551    99.794943    99.249829    102.66188 
   20500    313.63041   -18094.706   -25.698428   -24.798156   -6.4135916   -45.883538    99.794943    99.249829     102.6629 
   20600    310.93005   -18096.136    2.1079837     14.54549    31.009846   -39.231385    99.794943    99.249829    102.66393 
   20700    313.62233   -18097.571   -39.448887   -97.656731    8.8718303    -29.56176    99.794943    99.249829    102.66495 
   20800    306.42567   -18098.982     13.43655    10.072841    22.323692    7.9131176    99.794943    99.249829    102.66598 
   20900    303.78974   -18100.402   -1.4355366   -64.893152    82.805035   -22.218493    99.794943    99.249829      102.667 
   21000    310.74695   -18101.812   -19.141762   -24.554111    49.989017   -82.860191    99.794943    99.249829    102.66802 
   21100    307.15772   -18103.211   -30.949607   -17.502654   -17.932336    -57.41383    99.794943    99.249829    102.66905 
   21200     308.0003   -18104.603   -56.404057   -74.955668     1.867504   -96.124007    99.794943    99.249829    102.67007 
   21300    302.88634   -18105.988   -5.4132623    67.083848   -39.144058   -44.179578    99.794943    99.249829     102.6711 
   21400    301.16581   -18107.372   -43.837755    57.853958   -127.17004   -62.197178    99.794943    99.249829    102.67212 
   21500    301.36362   -18108.743   -22.345013   -16.210588   -40.801626   -10.022825    99.794943    99.249829    102.67315 
   21600    298.99266   -18110.113   -13.301416    62.454994   -20.819413   -81.539829    99.794943    99.249829    102.67417 
   21700    297.08282   -18111.468    25.990777    114.18694    13.395826   -49.610435    99.794943    99.249829     102.6752 
   21800    295.71162   -18112.819   -35.160878   -46.561866    17.070292   -75.991061    99.794943    99.249829    102.67622 
   21900    294.51982   -18114.163   -72.420791    -42.38086   -42.238128   -132.64339    99.794943    99.249829    102.67725 
   22000    295.60446   -18115.501    54.396206    111.41168    43.057161    8.7197758    99.794943    99.249829    102.67827 
   22100    297.36139   -18116.834    54.972498    39.667558    72.660262    52.589673    99.794943    99.249829    102.67929 
   22200    288.10102   -18118.158    4.1892027    -58.73511   -31.981005    103.28372    99.794943    99.249829    102.68032 
   22300    291.20747   -18119.481   -29.873433   -107.04345   -61.481617     78.90477    99.794943    99.249829    102.68134 
   22400    294.31053   -18120.795    42.353798    30.112113    11.686224    85.263057    99.794943    99.249829    102.68237 
   22500    291.65863   -18122.106    6.6472031    30.141246   -41.406665    31.207029    99.794943    99.249829    102.68339 
   22600    287.54342   -18123.405   -36.141227    -141.3928    17.674452    15.294669    99.794943    99.249829    102.68442 
   22700    288.71335   -18124.703   -15.876171   -46.685585    11.589214   -12.532141    99.794943    99.249829    102.68544 
   22800    288.60445       -18126   0.36840589    -72.68092    96.486747   -22.700609    99.794943    99.249829    102.68647 
   22900    287.78005   -18127.286    47.429168    95.726852    34.801507    11.759143    99.794943    99.249829    102.68749 
   23000    284.15015   -18128.571     20.74556   -10.289437    68.290664    4.2354543    99.794943    99.249829    102.68852 
   23100    285.51647   -18129.841    33.895107    13.016411    81.276467    7.3924425    99.794943    99.249829    102.68954 
   23200    283.59526   -18131.115    6.9834242    112.31345   -44.626725   -46.736449    99.794943    99.249829    102.69056 
   23300    283.71274   -18132.389   -3.3266829    80.106347   -89.693452  -0.39294346    99.794943    99.249829    102.69159 
   23400    280.89534   -18133.649   -41.394208   -19.573558   -62.642904   -41.966161    99.794943    99.249829    102.69261 
   23500    279.94989   -18134.906   -40.930975    31.048914   -129.37538   -24.466458    99.794943    99.249829    102.69364 
   23600    280.47529   -18136.158    64.443107    101.47595    10.532084    81.321288    99.794943    99.249829    102.69466 
   23700     273.8746   -18137.401    38.038343   -2.5753958    53.037147    63.653278    99.794943    99.249829    102.69569 
   23800    277.21474    -18138.64   -12.028043     34.20094   -99.312327    29.027258    99.794943    99.249829    102.69671 
   23900    276.47919   -18139.871   -4.1610789    29.321184   -62.201715    20.397294    99.794943    99.249829    102.69774 
   24000    274.23221     -18141.1   -1.3624874   -5.1142738   -15.800296    16.827108    99.794943    99.249829    102.69876 
   24100    280.51441   -18142.324   -35.309331    -15.22081    -59.08812   -31.619062    99.794943    99.249829    102.69979 
   24200    277.07101   -18143.539   -31.684442   -94.614584    4.2332802   -4.6720218    99.794943    99.249829    102.70081 
   24300    274.33926   -18144.743    2.3377674   -4.2865516    15.821513   -4.5216596    99.794943    99.249829    102.70183 
   24400    268.44612   -18145.942      43.1936    46.212288     111.2089   -27.840393    99.794943    99.249829    102.70286 
   24500    274.04687   -18147.141    52.608132    39.163046    100.39902    18.262333    99.794943    99.249829    102.70388 
   24600    271.97243   -18148.332    88.034998    22.566368     92.04656    149.49207    99.794943    99.249829    102.70491 
   24700    273.36135   -18149.522    64.886616    35.780229    91.003254    67.876366    99.794943    99.249829    102.70593 
   24800    271.64311   -18150.706   -22.976914   -53.656406   -34.496827    19.222492    99.794943    99.249829    102.70696 
   24900     265.9306   -18151.877   -73.113774   -91.743027   -92.936944    -34.66135    99.794943    99.249829    102.70798 
   25000    268.18118   -18153.044   -85.764546   -37.528328   -197.64765    -22.11766    99.794943    99.249829    102.70901 
   25100    264.57557   -18154.203    23.149033    23.437317   -4.1031571     50.11294    99.794943    99.249829    102.71003 
   25200    266.06682   -18155.361    -38.46026     45.59055   -75.302522   -85.668809    99.794943    99.249829    102.71105 
   25300    263.47037   -18156.508   -7.7289239    30.593813   -33.640869   -20.139716    99.794943    99.249829    102.71208 
   25400    263.78118   -18157.654    56.495295    126.10789    82.496438    -39.11844    99.794943    99.249829     102.7131 
   25500    265.65056   -18158.798    107.67231    237.25439    112.90072   -27.138169    99.794943    99.249829    102.71413 
   25600    258.23574   -18159.931    19.238051    143.31552   -45.576049   -40.025321    99.794943    99.249829    102.71515 
   25700    261.80052   -18161.067   -107.81671   -130.55801   -45.770572   -147.12156    99.794943    99.249829    102.71618 
   25800    257.10947   -18162.187   -52.638744    -27.95521   -13.815746   -116.14528    99.794943    99.249829     102.7172 
   25900    261.08753   -18163.307   -98.869823   -98.878097   -89.010213   -108.72116    99.794943    99.249829    102.71823 
   26000    260.06254   -18164.421   -77.080708   -111.21538   -35.587257   -84.439483    99.794943    99.249829    102.71925 
   26100    258.39131   -18165.533   -19.279229   -107.44197    16.288442    33.315844    99.794943    99.249829    102.72028 
   26200    255.22778   -18166.638    27.016323    23.224753    75.512172   -17.687955    99.794943    99.249829     102.7213 
   26300    255.84697   -18167.731    38.423792    7.7759528    92.041323      15.4541    99.794943    99.249829    102.72232 
   26400    255.83825   -18168.825    2.7808408    9.2695627    59.154532   -60.081572    99.794943    99.249829    102.72335 
   26500    253.29276   -18169.916   -17.329458    2.1604211    12.148968   -66.297764    99.794943    99.249829    102.72437 
   26600    253.06712   -18170.998   -9.8166499    13.926774    77.673348   -121.05007    99.794943    99.249829     102.7254 
   26700    253.14591   -18172.076   -5.2191436   -5.5160623    11.032664   -21.174033    99.794943    99.249829    102.72642 
   26800    249.49045   -18173.149   -3.4909433   -19.561668    14.654274   -5.5654359    99.794943    99.249829    102.72745 
   26900    251.26104   -18174.216   -23.958082   -130.95746    16.219922     42.86329    99.794943    99.249829    102.72847 
   27000    248.98372   -18175.281     17.86093    90.070875   -61.472823    24.984738    99.794943    99.249829     102.7295 
   27100    249.72018    -18176.34    57.759697    15.351955    16.663142    141.26399    99.794943    99.249829    102.73052 
   27200    250.46599   -18177.391   -32.284003    -21.25164   -122.71992    47.119555    99.794943    99.249829    102.73155 
   27300    246.68904   -18178.436    29.230333    6.5486129   -26.940488    108.08287    99.794943    99.249829    102.73257 
   27400    249.75704   -18179.486    52.261244    19.906907    45.360482    91.516341    99.794943    99.249829    102.73359 
   27500     243.4202   -18180.525     22.62921   -8.9356477    12.486388    64.336888    99.794943    99.249829    102.73462 
   27600    246.07385   -18181.565    15.638289   -21.951976    4.5443972    64.322445    99.794943    99.249829    102.73564 
   27700    240.18091   -18182.594    48.119591     6.899097    60.929517    76.530159    99.794943    99.249829    102.73667 
   27800     244.7725   -18183.612    29.546898     34.77111   -9.1992294    63.068813    99.794943    99.249829    102.73769 
   27900    239.73868   -18184.628  -0.32056147     37.55805   -8.0221947    -30.49754    99.794943    99.249829    102.73872 
   28000    243.27712   -18185.646      24.9461   -15.031077    41.126597    48.742781    99.794943    99.249829    102.73974 
   28100    237.38309   -18186.656   -2.1154994   -15.477862    23.552335   -14.420971    99.794943    99.249829    102.74077 
   28200    241.16449   -18187.665    21.431453     44.46786    1.0190335    18.807466    99.794943    99.249829    102.74179 
   28300    238.64232   -18188.662   -4.4901922   -68.875714    58.344823   -2.9396856    99.794943    99.249829    102.74282 
   28400    243.79682   -18189.658   -42.535269   -107.45635   -43.373372    23.223912    99.794943    99.249829    102.74384 
   28500    236.68288   -18190.648   -51.563422   -93.672465   -83.981267    22.963467    99.794943    99.249829    102.74486 
   28600    236.96064   -18191.634    20.618383   -16.035278    29.063945    48.826483    99.794943    99.249829    102.74589 
   28700    233.16213   -18192.616   -13.120845   -50.178605   -3.2688372    14.084908    99.794943    99.249829    102.74691 
   28800    235.08136   -18193.591    -5.845814   -1.6147509    69.949041   -85.871732    99.794943    99.249829    102.74794 
   28900    234.16123   -18194.568    58.161849    123.19929    54.601665   -3.3154071    99.794943    99.249829    102.74896 
   29000    234.94189   -18195.536    47.312522     102.8597    84.014771   -44.936903    99.794943    99.249829    102.74999 
   29100    232.44316   -18196.499    20.502495    130.12499     33.10415   -101.72165    99.794943    99.249829    102.75101 
   29200    229.87649   -18197.461    2.6394165    26.851249     10.73168    -29.66468    99.794943    99.249829    102.75204 
   29300    233.88534   -18198.416   -26.279883   -32.264797   -22.667154   -23.907697    99.794943    99.249829    102.75306 
   29400    229.57344   -18199.365   -32.082084   -34.172744    14.114653    -76.18816    99.794943    99.249829    102.75409 
   29500    230.02015   -18200.313   -89.496195   -84.730045    -83.65649   -100.10205    99.794943    99.249829    102.75511 
   29600    229.93978   -18201.258   -65.347277    1.4673311   -80.283869   -117.22529    99.794943    99.249829    102.75613 
   29700    230.13509   -18202.194   -77.200042   -88.325276    6.6790427   -149.95389    99.794943    99.249829    102.75716 
   29800    229.85596   -18203.128    3.5189424    9.8311788    12.619181   -11.893533    99.794943    99.249829    102.75818 
   29900    227.66245    -18204.06    56.439549    29.305008    121.52634    18.487298    99.794943    99.249829    102.75921 
   30000    227.16589   -18204.993   -14.542959    -53.38124    38.688551   -28.936187    99.794943    99.249829    102.76023 
   30100    228.90277   -18205.913    23.301428    92.145587    45.035102   -67.276405    99.794943    99.249829    102.76126 
   30200    224.82432   -18206.832   -14.499304    15.088194   -5.2064636   -53.379643    99.794943    99.249829    102.76228 
   30300    225.93886   -18207.747   -59.383411   -81.442917    35.951711   -132.65903    99.794943    99.249829    102.76331 
   30400    224.92996    -18208.66    5.7398246   -10.470876    77.812701   -50.122352    99.794943    99.249829    102.76433 
   30500    223.90401   -18209.566   -30.881622  0.048147608   -15.710171   -76.982842    99.794943    99.249829    102.76535 
   30600    224.88073    -18210.47    21.684088    23.538192   -2.2748485    43.788919    99.794943    99.249829    102.76638 
   30700    222.81741   -18211.365    13.305781    -24.75528    -5.101215    69.773839    99.794943    99.249829     102.7674 
   30800    225.31827   -18212.265    17.585611    38.451769   -29.047536    43.352599    99.794943    99.249829    102.76843 
   30900    223.68426    -18213.16    12.669272   -73.694697    28.130868    83.571645    99.794943    99.249829    102.76945 
   31000    222.09452   -18214.046    8.5823416   -34.564997   -15.725839    76.037861    99.794943    99.249829    102.77048 
   31100    217.09478   -18214.936    -16.59439    65.453429   -121.16191    5.9253131    99.794943    99.249829     102.7715 
   31200    220.00743   -18215.814   -29.038762    24.485112   -96.549201   -15.052198    99.794943    99.249829    102.77253 
   31300    220.34631   -18216.689     8.348635      35.7211   -25.818848    15.143653    99.794943    99.249829    102.77355 
   31400    220.68454   -18217.562    61.100555    100.86883    -10.86296    93.295796    99.794943    99.249829    102.77458 
   31500    218.73293   -18218.428    107.83197    125.40747    41.054387    157.03406    99.794943    99.249829     102.7756 
   31600    217.06379   -18219.296    77.452023    55.059878    105.72311    71.573084    99.794943    99.249829    102.77662 
   31700    215.47283   -18220.153     -19.1546    -130.4388   -21.007512     93.98251    99.794943    99.249829    102.77765 
   31800    214.53716   -18221.015    9.1997925   -108.88813    71.242662    65.244845    99.794943    99.249829    102.77867 
   31900    216.57369   -18221.872   -10.687693   -143.93205    58.892773    52.976201    99.794943    99.249829     102.7797 
   32000    217.04097    -18222.72   -58.222499   -122.43505   -59.513846    7.2814004    99.794943    99.249829    102.78072 
   32100    212.61332   -18223.568   -82.440257   -92.348116   -143.85953   -11.113127    99.794943    99.249829    102.78175 
   32200     212.6856   -18224.406   -23.901671    -29.49148   -13.606446   -28.607087    99.794943    99.249829    102.78277 
   32300    212.71974   -18225.242    98.641424    112.41486    96.663209      86.8462    99.794943    99.249829     102.7838 
   32400    212.96599    -18226.08    82.388918    164.37175    3.2879806    79.507026    99.794943    99.249829    102.78482 
   32500    210.89925   -18226.912    36.085198    70.051154    64.750252   -26.545812    99.794943    99.249829    102.78585 
   32600    208.55012   -18227.736   -6.8398073    23.884818    38.267087   -82.671327    99.794943    99.249829    102.78687 
   32700    211.95668   -18228.555    19.480525    60.338606   -2.2478716   0.35084179    99.794943    99.249829    102.78789 
   32800    212.12185   -18229.379   -22.808471   -9.1454386   -10.194983   -49.084991    99.794943    99.249829    102.78892 
   32900    209.37774   -18230.191    -135.5893   -130.00268   -147.74892   -129.01631    99.794943    99.249829    102.78994 
   33000    208.48015       -18231   -133.07765   -133.60613   -123.31514   -142.31167    99.794943    99.249829    102.79097 
   33100    205.85226   -18231.804   -41.666228   -93.647597    24.789216   -56.140304    99.794943    99.249829    102.79199 
   33200     207.4348   -18232.608   -12.644405    12.495119    7.6427417   -58.071076    99.794943    99.249829    102.79302 
   33300     203.8322   -18233.406    14.810334    47.600748    22.787811   -25.957556    99.794943    99.249829    102.79404 
   33400    205.25107   -18234.202    87.773895    122.15678    150.29972   -9.1348148    99.794943    99.249829    102.79507 
   33500    207.28142   -18234.997    95.949072    52.214238    167.44092    68.192054    99.794943    99.249829    102.79609 
   33600    204.51194   -18235.789    58.213617    122.40259    74.437024   -22.198767    99.794943    99.249829    102.79712 
   33700    204.97353   -18236.576    -88.20884   -79.983988   -91.993496   -92.649038    99.794943    99.249829    102.79814 
   33800    206.04779    -18237.36   -90.435908   -113.78586   -22.521442   -135.00042    99.794943    99.249829    102.79916 
   33900    200.44133   -18238.138   -112.12085   -143.32339   -90.349518   -102.68965    99.794943    99.249829    102.80019 
   34000    202.82332   -18238.914   -60.656555   -87.373529   -17.422736     -77.1734    99.794943    99.249829    102.80121 
   34100    199.26431   -18239.682   -35.588621    -17.27946   -24.993735   -64.492668    99.794943    99.249829    102.80224 
   34200     199.1558   -18240.447    27.446558    82.493207    12.351855   -12.505387    99.794943    99.249829    102.80326 
   34300     202.5322   -18241.213    121.77861    147.57063    80.200672    137.56454    99.794943    99.249829    102.80429 
   34400    202.80975    -18241.98    65.815848    52.506867    65.838236    79.102442    99.794943    99.249829    102.80531 
   34500    200.77108   -18242.739    48.129841    5.8013097     45.31479    93.273422    99.794943    99.249829    102.80634 
   34600    203.01733   -18243.497    50.675657    37.093696     27.48627    87.447005    99.794943    99.249829    102.80736 
   34700    197.09002   -18244.251   -0.3332746   -79.723185    42.723131     36.00023    99.794943    99.249829    102.80839 
   34800    196.11726       -18245   -3.4871696   -40.655014   -26.302146    56.495651    99.794943    99.249829    102.80941 
   34900    197.29563   -18245.747   -55.783161   -13.328274    -165.6351    11.613888    99.794943    99.249829    102.81043 
   35000     197.5514   -18246.495   -46.214768   -122.01674   -34.108722     17.48116    99.794943    99.249829    102.81146 
   35100    196.38415   -18247.236    16.256797    30.901319   -12.104043    29.973116    99.794943    99.249829    102.81248 
   35200    197.42169   -18247.974    78.434352    93.916803   -13.467602    154.85385    99.794943    99.249829    102.81351 
   35300    198.01778   -18248.712    60.281722    68.604151    22.439392    89.801623    99.794943    99.249829    102.81453 
   35400    194.95999   -18249.445    55.707543   -9.4870639    114.46532     62.14437    99.794943    99.249829    102.81556 
   35500     194.4966   -18250.174    34.976555    33.818132    68.535843    2.5756913    99.794943    99.249829    102.81658 
   35600    195.19818   -18250.903    39.024914   -18.010445    9.6716622    125.41353    99.794943    99.249829    102.81761 
   35700    193.04315   -18251.627   -40.919475   -118.28266   -53.930224    49.454455    99.794943    99.249829    102.81863 
   35800    193.17892   -18252.349   -52.809301   -87.444978   -49.634667   -21.348258    99.794943    99.249829    102.81965 
   35900    193.65921   -18253.065    -17.66177   -24.497667   -62.377656    33.890013    99.794943    99.249829    102.82068 
   36000    192.40404   -18253.776    22.461667  0.037054937    44.476671    22.871275    99.794943    99.249829     102.8217 
   36100    190.54828   -18254.487    -20.29356    57.345648   -74.285041   -43.941286    99.794943    99.249829    102.82273 
   36200     189.4814   -18255.191      21.9497   -6.5748323    84.787442   -12.363509    99.794943    99.249829    102.82375 
   36300    192.84868   -18255.898    59.040376    39.576186    113.63892    23.906025    99.794943    99.249829    102.82478 
   36400    190.46462   -18256.596   -7.4610745    7.8768425    37.672741   -67.932807    99.794943    99.249829     102.8258 
   36500     189.1118   -18257.293   -31.489098    20.401933   -45.020881   -69.848346    99.794943    99.249829    102.82683 
   36600    188.39192   -18257.988   -44.266253   -10.165912   -55.086525   -67.546324    99.794943    99.249829    102.82785 
   36700     190.8113    -18258.68   -16.520446   -33.179982    24.671057   -41.052414    99.794943    99.249829    102.82888 
   36800    188.17268   -18259.366    -56.92704    12.781001   -88.641433   -94.920689    99.794943    99.249829     102.8299 
   36900    187.36414   -18260.049    -23.20555    22.216227   -28.817091   -63.015787    99.794943    99.249829    102.83092 
   37000    189.65435   -18260.728    35.348798     37.21464    55.564556    13.267197    99.794943    99.249829    102.83195 
   37100    187.18017    -18261.41   -40.777662    63.503007   -91.475635   -94.360357    99.794943    99.249829    102.83297 
   37200    187.25896   -18262.087   -18.424697     9.921724   -10.850086    -54.34573    99.794943    99.249829      102.834 
   37300    187.07805   -18262.761   -26.060494    10.277481   -18.357041   -70.101923    99.794943    99.249829    102.83502 
   37400    183.77935   -18263.428   -10.535449   -19.371433    5.5420224   -17.776937    99.794943    99.249829    102.83605 
   37500    184.91343   -18264.096   -19.369581   -5.9995837    17.308503   -69.417662    99.794943    99.249829    102.83707 
   37600    184.91237   -18264.759    -39.80491    1.7920481   -32.564468   -88.642309    99.794943    99.249829     102.8381 
   37700    180.54322    -18265.42    43.758324    36.367842    69.384898    25.522232    99.794943    99.249829    102.83912 
   37800    183.82448   -18266.081    48.706079      30.6337    87.709193    27.775343    99.794943    99.249829    102.84015 
   37900    182.41443   -18266.737    9.8987666   -4.4020029    47.718605   -13.620303    99.794943    99.249829    102.84117 
   38000    182.71118   -18267.388   -40.979298   -59.462404   -27.929457   -35.546034    99.794943    99.249829    102.84219 
   38100    181.70794   -18268.039   -41.116855   -35.705778   -55.039443   -32.605343    99.794943    99.249829    102.84322 
   38200    181.71827   -18268.688    0.8117352  -0.48010013   -55.019798    57.935104    99.794943    99.249829    102.84424 
   38300    181.62021   -18269.336    30.765979    15.669566   -19.998633    96.627002    99.794943    99.249829    102.84527 
   38400    179.54552   -18269.979   -28.033789   -85.929635   -35.870993     37.69926    99.794943    99.249829    102.84629 
   38500    178.21558   -18270.619  -0.17852844   -15.855503   -26.961877    42.281794    99.794943    99.249829    102.84732 
   38600    178.80546   -18271.253    30.597291    1.5497519    84.554768    5.6873531    99.794943    99.249829    102.84834 
   38700    179.57788    -18271.89    80.135003    89.081956    95.334043     55.98901    99.794943    99.249829    102.84937 
   38800    178.65222   -18272.522    84.733472    5.5406232    103.07921    145.58059    99.794943    99.249829    102.85039 
   38900    177.93238   -18273.151    31.170728    18.003624     24.19014    51.318419    99.794943    99.249829    102.85142 
   39000    179.33762   -18273.776   -4.8674201   -44.725578   0.48199782     29.64132    99.794943    99.249829    102.85244 
   39100    176.53916   -18274.397   -29.026115   -41.516496   -14.352627   -31.209221    99.794943    99.249829    102.85346 
   39200    175.82873   -18275.018   -65.030719   -129.22454   -46.523354   -19.344263    99.794943    99.249829    102.85449 
   39300    177.99317   -18275.637   -69.515578   -41.947709   -99.604063   -66.994961    99.794943    99.249829    102.85551 
   39400     177.7243   -18276.251   -22.250868   -3.1174066    -90.61525    26.980054    99.794943    99.249829    102.85654 
   39500     174.7498   -18276.863    54.568082    62.471868    25.386093    75.846285    99.794943    99.249829    102.85756 
   39600    174.72262   -18277.475    34.122872    83.769473   -27.834802    46.433943    99.794943    99.249829    102.85859 
   39700    172.81827    -18278.08    36.190692    56.190292    70.136145   -17.754361    99.794943    99.249829    102.85961 
   39800    173.49335   -18278.682   -8.5275605   -31.613565    13.518067   -7.4871834    99.794943    99.249829    102.86064 
   39900    174.18215   -18279.283    1.9955057    37.159278    10.597634   -41.770395    99.794943    99.249829    102.86166 
[...]
   85300    92.451023   -18394.145    20.240954    47.254395     22.18962   -8.7211535    99.794943    99.249829     103.3268 
   85400    93.214612   -18394.159    34.137244    54.571825    63.403052   -15.563144    99.794943    99.249829    103.32782 
   85500    93.480399   -18394.174   -10.187456   -13.484634    12.936449   -30.014184    99.794943    99.249829    103.32885 
   85600    92.730242   -18394.186   -21.597965   -19.552059    44.819861   -90.061697    99.794943    99.249829    103.32987 
   85700     92.45984   -18394.198   -3.9512651   -4.2263801    1.0279906   -8.6554059    99.794943    99.249829    103.33089 
   85800    93.084226   -18394.209     3.781088   -11.022851   -14.849431    37.215546    99.794943    99.249829    103.33192 
   85900    92.291454   -18394.219    1.5234299   -15.914426    18.638964    1.8457514    99.794943    99.249829    103.33294 
   86000    93.251342   -18394.228   0.63062561   -34.284819    20.528937    15.647759    99.794943    99.249829    103.33397 
   86100    92.265552   -18394.236    4.6238153    7.0607492   -24.238373     31.04907    99.794943    99.249829    103.33499 
   86200    91.866931   -18394.243    3.9387613    2.1233668   -14.793832    24.486749    99.794943    99.249829    103.33602 
   86300    92.072431   -18394.249   -18.402226   -14.247461   -44.008706    3.0494872    99.794943    99.249829    103.33704 
   86400    91.665018   -18394.254   -1.3134376    14.268506   -51.363463    33.154644    99.794943    99.249829    103.33807 
   86500    93.063912   -18394.258    8.2733524    17.304099    29.902977   -22.387019    99.794943    99.249829    103.33909 
   86600    92.806638   -18394.261    42.877823    41.974188    60.174045    26.485236    99.794943    99.249829    103.34012 
   86700    92.276036   -18394.263    6.6273123    43.165718   -31.159031    7.8752496    99.794943    99.249829    103.34114 
   86800    91.592064   -18394.264   -16.465905    11.798827   -15.860406   -45.336137    99.794943    99.249829    103.34216 
   86900    92.607844   -18394.264   -1.3634538   -52.598272    71.065087   -22.557177    99.794943    99.249829    103.34319 
   87000    92.528464   -18394.263    16.121884    7.3763168    17.778702    23.210633    99.794943    99.249829    103.34421 
   87100     94.59713   -18394.262    9.9043334    18.622549   -17.805454    28.895905    99.794943    99.249829    103.34524 
   87200    93.601617   -18394.259   -7.5391779   -43.008031   -32.985473    53.375971    99.794943    99.249829    103.34626 
   87300    91.165714   -18394.254   0.82380378   -22.209404    15.377705    9.3031106    99.794943    99.249829    103.34729 
   87400    92.271309   -18394.249    45.139589    75.343067   -27.299365    87.375065    99.794943    99.249829    103.34831 
   87500    91.803263   -18394.244    13.505099     46.47602   -27.238324    21.277602    99.794943    99.249829    103.34934 
   87600    91.896416   -18394.237   -12.837279   -41.528763   -4.6594158    7.6763418    99.794943    99.249829    103.35036 
   87700     93.66627   -18394.229      4.26127   -2.7474809    9.8812588    5.6500321    99.794943    99.249829    103.35139 
   87800    91.608911    -18394.22   -28.931211   -48.661849   -11.958107   -26.173678    99.794943    99.249829    103.35241 
   87900    92.908788    -18394.21   -35.147196   -30.473261    -38.38204   -36.586286    99.794943    99.249829    103.35343 
   88000    93.947679   -18394.199   -8.5071629   -39.208496    35.539091   -21.852084    99.794943    99.249829    103.35446 
   88100    92.515997   -18394.187   -5.6257138   -2.6515892     14.51167   -28.737222    99.794943    99.249829    103.35548 
   88200    93.088208   -18394.174     43.98497    19.758582    111.04427    1.1520556    99.794943    99.249829    103.35651 
   88300    92.396656    -18394.16    15.142368    26.018981    22.471432   -3.0633099    99.794943    99.249829    103.35753 
   88400    93.455158   -18394.145    4.2398197    14.029043   0.24294908   -1.5525332    99.794943    99.249829    103.35856 
   88500     93.63896   -18394.129     -9.65974    27.497174   -48.931844   -7.5445498    99.794943    99.249829    103.35958 
   88600    93.517748   -18394.112    -7.318128    7.2993723   -18.437335   -10.816421    99.794943    99.249829    103.36061 
   88700    92.136392   -18394.094   -39.777815   -70.232449   -38.789081   -10.311917    99.794943    99.249829    103.36163 
   88800     92.87358   -18394.075   -43.511946   -80.605988   -10.395349   -39.534502    99.794943    99.249829    103.36266 
   88900    93.156938   -18394.055   -21.170986   -23.154684   -35.731183   -4.6270914    99.794943    99.249829    103.36368 
   89000     92.83391   -18394.034   -17.801858    6.5223089    -15.28756   -44.640321    99.794943    99.249829     103.3647 
   89100    93.155929   -18394.012    16.171546    27.935629    73.630131   -53.051121    99.794943    99.249829    103.36573 
   89200    92.553466   -18393.989    46.506479    22.056923    122.58185   -5.1193368    99.794943    99.249829    103.36675 
   89300    91.116854   -18393.965    47.238799    78.176173    30.386482    33.153741    99.794943    99.249829    103.36778 
   89400    92.719593    -18393.94    17.901061    76.192926   -6.3915355   -16.098208    99.794943    99.249829     103.3688 
   89500    93.109188   -18393.915   -52.022486   -45.474646   -73.798256   -36.794555    99.794943    99.249829    103.36983 
   89600    92.745644   -18393.888   -23.862137   -31.229525   -39.235689   -1.1211979    99.794943    99.249829    103.37085 
   89700    92.261702    -18393.86   -31.329229   -46.341882   -56.292889    8.6470853    99.794943    99.249829    103.37188 
   89800    93.216566   -18393.831   -15.275391   -32.962109   -27.569303    14.705239    99.794943    99.249829     103.3729 
   89900    91.607296   -18393.801   -6.0371112   -48.331028    17.074197    13.145498    99.794943    99.249829    103.37393 
   90000    92.991673   -18393.771    18.624133   -33.308662    61.357655    27.823406    99.794943    99.249829    103.37495 
   90100    92.600942    -18393.74    44.568093    17.337997    71.895137    44.471146    99.794943    99.249829    103.37597 
   90200    93.699953   -18393.708    58.299453    35.670461    77.263622    61.964277    99.794943    99.249829      103.377 
   90300    93.151323   -18393.674    13.873627    21.340419    24.262442   -3.9819793    99.794943    99.249829    103.37802 
   90400     93.32967    -18393.64   0.64835639    23.093873   -33.481187    12.332383    99.794943    99.249829    103.37905 
   90500    93.139214   -18393.604   -18.803747   -2.9179715   -44.261367    -9.231902    99.794943    99.249829    103.38007 
   90600    92.905981   -18393.567   -52.803209   -27.705609   -91.112701   -39.591318    99.794943    99.249829     103.3811 
   90700    93.238023    -18393.53   -19.282725    54.996213   -95.167487   -17.676901    99.794943    99.249829    103.38212 
   90800    92.246464   -18393.492    -17.73804   -26.247558   -32.216898    5.2503364    99.794943    99.249829    103.38315 
   90900    91.509573   -18393.452   -1.7581029   -11.018221    23.652478   -17.908566    99.794943    99.249829    103.38417 
   91000    93.955965   -18393.413    17.286728    25.966584    19.219388    6.6742116    99.794943    99.249829    103.38519 
   91100     94.55259   -18393.372    56.075358    86.311921    24.392278    57.521875    99.794943    99.249829    103.38622 
   91200    92.223733    -18393.33    58.169563    36.020138    68.931595    69.556957    99.794943    99.249829    103.38724 
   91300    92.327275   -18393.288    9.2706284   -15.751149    24.366103    19.196931    99.794943    99.249829    103.38827 
   91400    92.590514   -18393.244    4.2418222   -5.1166295     14.44734     3.394756    99.794943    99.249829    103.38929 
   91500    92.939789   -18393.199   -44.915172   -43.505105   -35.587652   -55.652758    99.794943    99.249829    103.39032 
   91600    93.455508   -18393.154   -49.518748   -64.129505   -62.583549   -21.843188    99.794943    99.249829    103.39134 
   91700    94.096554   -18393.107   -18.431915   -18.982181   -42.876327    6.5627632    99.794943    99.249829    103.39237 
   91800    93.426377    -18393.06   -6.5812824   -29.678807    23.497719   -13.562759    99.794943    99.249829    103.39339 
   91900    93.693483   -18393.012   -22.860973   -34.304152    21.522505   -55.801274    99.794943    99.249829    103.39442 
   92000    93.719256   -18392.962    9.2997094    20.610689    35.946752   -28.658312    99.794943    99.249829    103.39544 
   92100    93.104407   -18392.912    40.328528    74.452379    25.175767    21.357439    99.794943    99.249829    103.39646 
   92200    92.606363   -18392.861    18.341202    41.784527    9.6692623     3.569818    99.794943    99.249829    103.39749 
   92300    92.717581   -18392.809    22.622865    64.603241    11.646289   -8.3809357    99.794943    99.249829    103.39851 
   92400    93.525334   -18392.757    18.518094    36.708768   -3.5951596    22.440674    99.794943    99.249829    103.39954 
   92500    93.500636   -18392.704   -11.173922    23.589561   -32.506674   -24.604654    99.794943    99.249829    103.40056 
   92600    92.736925   -18392.649   -24.511502   -35.266257   -7.6274193   -30.640831    99.794943    99.249829    103.40159 
   92700    93.680535   -18392.595   -46.537499   -57.425068   -90.625261    8.4378341    99.794943    99.249829    103.40261 
   92800    93.098907   -18392.539   -36.651835   -95.462223   -12.331379    -2.161903    99.794943    99.249829    103.40364 
   92900    94.137286   -18392.483   -18.528366   -58.386395   -11.055167    13.856463    99.794943    99.249829    103.40466 
   93000    93.732697   -18392.425    28.434151    13.489416     33.88688    37.926158    99.794943    99.249829    103.40569 
   93100    94.227728   -18392.368    27.311476    11.219656    6.8953001    63.819473    99.794943    99.249829    103.40671 
   93200     93.53062   -18392.309    42.278139    63.892459    20.078512    42.863445    99.794943    99.249829    103.40773 
   93300    94.542274   -18392.249    44.479479    62.879785    54.887087    15.671566    99.794943    99.249829    103.40876 
   93400    94.209015   -18392.189    28.840353    27.667564    27.417024    31.436471    99.794943    99.249829    103.40978 
   93500    94.821725   -18392.127   -32.285435   -9.0306631    -23.38007   -64.445571    99.794943    99.249829    103.41081 
   93600    94.107397   -18392.065   -43.058673   -19.523415   -46.456787   -63.195816    99.794943    99.249829    103.41183 
   93700    94.284744   -18392.002   -10.049538   -52.229561    37.005437    -14.92449    99.794943    99.249829    103.41286 
   93800    94.185209   -18391.938    20.486675    12.884691    26.903499    21.671836    99.794943    99.249829    103.41388 
   93900    94.128955   -18391.874    6.3072492    -36.30389    26.904968    28.320669    99.794943    99.249829    103.41491 
   94000     95.38198   -18391.809    22.990233    11.504887    10.471194    46.994618    99.794943    99.249829    103.41593 
   94100    95.202072   -18391.744    26.880979   -4.6624845    36.255011     49.05041    99.794943    99.249829    103.41696 
   94200    93.621473   -18391.677      32.6102    45.173439    2.2241161    50.433046    99.794943    99.249829    103.41798 
   94300    93.678508   -18391.609   -34.285808   -33.922621   -46.833561   -22.101241    99.794943    99.249829      103.419 
   94400    94.680544   -18391.541   -14.771864   -40.097412   -11.483628    7.2654493    99.794943    99.249829    103.42003 
   94500    95.468038   -18391.473  -0.31290446   -2.8809077   -33.046363    34.988558    99.794943    99.249829    103.42105 
   94600    93.747138   -18391.403   -10.352935     33.48525   -44.466938   -20.077117    99.794943    99.249829    103.42208 
   94700     93.68072   -18391.333   -32.551636   -3.2111411    -56.78931   -37.654457    99.794943    99.249829     103.4231 
   94800     93.47777   -18391.262    3.7468834     -12.5033    29.126301   -5.3823511    99.794943    99.249829    103.42413 
   94900    93.196311    -18391.19     40.54972    43.471172     54.01793    24.160057    99.794943    99.249829    103.42515 
   95000    94.417223   -18391.119    4.4114663    3.4033871   -4.4742034    14.305215    99.794943    99.249829    103.42618 
   95100    92.745775   -18391.046    1.7770764    -21.37837    33.033314   -6.3237145    99.794943    99.249829     103.4272 
   95200     95.86983   -18390.973    9.3111225    3.9059467    12.983274    11.044147    99.794943    99.249829    103.42823 
   95300    95.257877   -18390.899   -14.207601     17.46819   -16.829094   -43.261899    99.794943    99.249829    103.42925 
   95400    94.921661   -18390.824   -13.544924    40.528174   -52.966445     -28.1965    99.794943    99.249829    103.43027 
   95500    93.824865   -18390.748   -41.195003    12.835105   -116.01222   -20.407892    99.794943    99.249829     103.4313 
   95600    95.033779   -18390.673   -21.671602    16.909504   -78.308739   -3.6155717    99.794943    99.249829    103.43232 
   95700    95.032014   -18390.597    11.188269   -2.6909918    34.029353     2.226447    99.794943    99.249829    103.43335 
   95800     95.77422    -18390.52    13.943717    24.441239    5.4467179    11.943196    99.794943    99.249829    103.43437 
   95900    95.878569   -18390.443    28.478427    -6.044618    61.845298    29.634601    99.794943    99.249829     103.4354 
   96000    96.218299   -18390.365     7.464976   -34.142525    41.223053      15.3144    99.794943    99.249829    103.43642 
   96100    95.669657   -18390.286    28.923744    19.637166    40.436548    26.697516    99.794943    99.249829    103.43745 
   96200    96.597505   -18390.207     15.11754    7.3850112    17.666561    20.301049    99.794943    99.249829    103.43847 
   96300    94.959689   -18390.127   -31.763623   -79.846497    1.5289458   -16.973319    99.794943    99.249829    103.43949 
   96400    95.481504   -18390.047   -34.309707    28.231536   -55.670586   -75.490072    99.794943    99.249829    103.44052 
   96500    96.562957   -18389.966   -2.7778879    42.591962   -28.464825   -22.460801    99.794943    99.249829    103.44154 
   96600    94.799015   -18389.884    17.335766    24.008236    -2.030519    30.029582    99.794943    99.249829    103.44257 
   96700    95.994805   -18389.802    -1.906495    4.1154091   -32.050586    22.215692    99.794943    99.249829    103.44359 
   96800    93.839521   -18389.721   -16.241848   -21.978053   -8.6982003   -18.049291    99.794943    99.249829    103.44462 
   96900     96.21524   -18389.638   0.49664595      3.01231    1.3591324   -2.8815046    99.794943    99.249829    103.44564 
   97000    96.311161   -18389.555    32.990962    41.928121    3.1107861    53.933979    99.794943    99.249829    103.44667 
   97100    96.135957   -18389.471     9.454124    36.496174   -34.539238    26.405437    99.794943    99.249829    103.44769 
   97200    95.688648   -18389.387    6.1775455    7.1450911   -9.5485515    20.936097    99.794943    99.249829    103.44872 
   97300    97.293817   -18389.302    11.138716    8.4150472    18.855105    6.1459973    99.794943    99.249829    103.44974 
   97400    95.929294   -18389.216    28.914616    22.650609    32.067117    32.026121    99.794943    99.249829    103.45076 
   97500    96.422444   -18389.131   -20.689929   -46.565285   -7.5602776   -7.9442254    99.794943    99.249829    103.45179 
   97600    96.096799   -18389.044   -22.494402   -12.376527   -26.617361   -28.489318    99.794943    99.249829    103.45281 
   97700    96.809826   -18388.958   -26.163498   -5.4219557   -44.077264   -28.991273    99.794943    99.249829    103.45384 
   97800    94.688976    -18388.87    20.995875    50.040252   -26.698248     39.64562    99.794943    99.249829    103.45486 
   97900    95.988514   -18388.784   -14.584932   -65.736327    2.0195951    19.961935    99.794943    99.249829    103.45589 
   98000    95.892869   -18388.696    40.967249    36.205595    43.870993    42.825158    99.794943    99.249829    103.45691 
   98100    95.481969   -18388.608    32.487453     48.70165    42.471649    6.2890594    99.794943    99.249829    103.45794 
   98200    96.131949   -18388.519    9.8340292    10.157933    18.941064   0.40309051    99.794943    99.249829    103.45896 
   98300    97.448371   -18388.431    4.0775477    10.173293   -38.771087    40.830437    99.794943    99.249829    103.45999 
   98400    96.200428   -18388.342   -4.6912689    11.358595    -40.60493    15.172528    99.794943    99.249829    103.46101 
   98500    96.447264   -18388.253    1.1436685    12.895093   -20.746248     11.28216    99.794943    99.249829    103.46203 
   98600    94.945207   -18388.163   -25.479493    8.6298159   -53.997642   -31.070654    99.794943    99.249829    103.46306 
   98700    96.169025   -18388.073   -58.837008    -55.20937   -90.144883   -31.156769    99.794943    99.249829    103.46408 
   98800    97.612839   -18387.983   -13.117346    16.729299   -34.810655   -21.270682    99.794943    99.249829    103.46511 
   98900    96.984471   -18387.891     30.68456     21.40434    70.847003  -0.19766171    99.794943    99.249829    103.46613 
   99000    96.670651     -18387.8    13.673653    14.863225    43.789241   -17.631506    99.794943    99.249829    103.46716 
   99100    97.724887   -18387.709     24.21705     35.25022    49.528708   -12.127777    99.794943    99.249829    103.46818 
   99200    96.184354   -18387.617    9.2181017    1.3888241     7.686101     18.57938    99.794943    99.249829    103.46921 
   99300    97.328202   -18387.526    5.4013051    59.343842   -37.238775   -5.9011523    99.794943    99.249829    103.47023 
   99400    97.271262   -18387.433   -23.742956   -74.814315    12.084354   -8.4989062    99.794943    99.249829    103.47126 
   99500    97.368244   -18387.341   -63.120077   -31.916767   -70.184506   -87.258958    99.794943    99.249829    103.47228 
   99600    97.452421   -18387.247   -29.179532    -37.39252   -26.633511   -23.512566    99.794943    99.249829     103.4733 
   99700    97.059347   -18387.154   -21.742079    17.885207   -21.458591   -61.652852    99.794943    99.249829    103.47433 
   99800    95.975445   -18387.061    17.418284    44.097195   -14.456611    22.614266    99.794943    99.249829    103.47535 
   99900    96.933074   -18386.968     14.78858    37.198749    24.250387   -17.083395    99.794943    99.249829    103.47638 
  100000    99.148782   -18386.875    28.901607    42.384434    55.433078   -11.112691    99.794943    99.249829     103.4774 
Loop time of 229.474 on 28 procs for 100000 steps with 5538 atoms

Performance: 37.651 ns/day, 0.637 hours/ns, 435.778 timesteps/s
99.9% CPU use with 28 MPI tasks x 1 OpenMP threads

MPI task timing breakdown:
Section |  min time  |  avg time  |  max time  |%varavg| %total
---------------------------------------------------------------
Pair    | 131.93     | 191.79     | 218.89     | 250.8 | 83.58
Neigh   | 0.26193    | 1.2853     | 1.8866     |  53.2 |  0.56
Comm    | 4.2902     | 30.722     | 91.124     | 614.7 | 13.39
Output  | 0.20881    | 0.21701    | 0.22036    |   0.5 |  0.09
Modify  | 2.958      | 5.0509     | 8.6774     |  79.7 |  2.20
Other   |            | 0.414      |            |       |  0.18

Nlocal:    197.786 ave 282 max 39 min
Histogram: 7 1 0 0 0 0 0 1 11 8
Nghost:    356.321 ave 462 max 170 min
Histogram: 8 0 0 0 0 0 0 3 11 6
Neighs:    1947.61 ave 2897 max 152 min
Histogram: 4 3 1 0 0 0 0 4 9 7
FullNghs:  3895.21 ave 5762 max 591 min
Histogram: 7 1 0 0 0 0 0 4 10 6

Total # of neighbors = 109066
Ave neighs/atom = 19.6941
Neighbor list builds = 4521
Dangerous builds = 4
Total wall time: 0:04:30
