LAMMPS (16 Feb 2016)
WARNING: OMP_NUM_THREADS environment is not set. (../comm.cpp:90)
  using 1 OpenMP thread(s) per MPI task
Lattice spacing in x,y,z = 3.2 5.54256 5.22558
Created orthogonal box = (0 0 0) to (100 100 100)
  2 by 2 by 7 MPI processor grid
Lattice spacing in x,y,z = 3.2 5.54256 5.22558
Created 5538 atoms
Reading potential file library.meam with DATE: 2012-06-29
Reading potential file Cu.meam with DATE: 2007-06-11
WARNING: Shell command 'mkdir' failed with error 'File exists' (../input.cpp:1126)
Neighbor list info ...
  3 neighbor list requests
  update every 1 steps, delay 10 steps, check yes
  max neighbors/atom: 2000, page size: 100000
  master list distance cutoff = 4.3
  ghost atom cutoff = 4.3
  binsize = 2.15, bins = 47 47 47
Setting up Verlet run ...
  Unit style  : metal
  Current step: 0
  Time step   : 0.001
Memory usage per processor = 8.766 Mbytes
Step Temp TotEng Press Pxx Pyy Pzz Lx Ly Lz 
       0          100    74533.891    126282.18   -21961.071   -22040.494    422848.11          100          100          100 
     100    328.52595   -12542.697   -12626.862   -11794.071   -11849.771   -14236.744          100          100          100 
     200    183.44143   -13462.927   -13991.587   -12634.268   -12743.661    -16596.83          100          100          100 
     300    172.52322   -14022.164   -10739.972   -9439.8075   -9351.9381    -13428.17          100          100          100 
     400    165.24783    -14512.22   -7941.3567   -6620.3902   -6619.1806   -10584.499          100          100          100 
     500    153.23878   -14938.652   -6281.6176   -4994.3211   -4953.5062   -8897.0254          100          100          100 
     600    139.23132   -15259.589   -5168.7032   -4023.2793   -4053.2588   -7429.5714          100          100          100 
     700    129.32332   -15497.001   -4354.9783    -3374.818   -3492.0502   -6198.0665          100          100          100 
     800    124.82448   -15687.584    -3790.236   -2933.6285   -3083.6903   -5353.3892          100          100          100 
     900    120.85009   -15854.452   -3309.8077   -2531.1851   -2659.4054   -4738.8325          100          100          100 
    1000    117.85269   -15987.913   -2883.5353   -2206.1802   -2247.8727    -4196.553          100          100          100 
    1100    114.25673   -16096.683   -2551.6914   -1857.6211   -1894.9333   -3902.5198          100          100          100 
    1200    111.77444   -16190.402   -2355.6177   -1598.1871   -1674.9124   -3793.7535          100          100          100 
    1300    111.90142   -16273.218   -2142.7111   -1376.7456   -1405.6287   -3645.7588          100          100          100 
    1400    111.04081   -16351.015   -1976.0047   -1241.9258   -1249.2275   -3436.8609          100          100          100 
    1500    110.43094   -16422.913   -1853.8831   -1119.0716   -1106.8528   -3335.7248          100          100          100 
    1600    108.27357   -16487.159   -1653.9718   -906.10969   -914.58574   -3141.2201          100          100          100 
    1700    107.34856   -16544.585    -1477.459   -715.82499   -721.75758   -2994.7945          100          100          100 
    1800    106.89181   -16597.563   -1321.8213   -614.79433    -542.5313   -2808.1383          100          100          100 
    1900    107.39107   -16648.175   -1161.8051   -440.63914   -401.51269   -2643.2636          100          100          100 
    2000     106.8191   -16696.491   -1036.1019   -395.43472   -262.56353   -2450.3073          100          100          100 
    2100     106.3243   -16737.991   -898.44568   -194.00747   -114.53131   -2386.7983          100          100          100 
    2200    104.19245   -16774.085   -843.36982   -213.57608   -109.43487   -2207.0985          100          100          100 
    2300    104.71169   -16805.551    -781.6992   -184.33936   -38.920319   -2121.8379          100          100          100 
    2400    104.59722    -16838.83      -758.75   -181.52878   -79.513302   -2015.2079          100          100          100 
    2500     104.9312   -16869.947   -764.20776   -185.61138   -86.969268   -2020.0426          100          100          100 
    2600    105.38214    -16904.78   -734.54155   -209.29353    -68.67341   -1925.6577          100          100          100 
    2700    103.43116   -16936.214   -707.32704   -155.67568   -168.42429   -1797.8812          100          100          100 
    2800    103.73321    -16963.15   -642.99312   -25.096569   -73.250974   -1830.6318          100          100          100 
    2900    102.79686   -16989.494   -595.49315    36.167925   -46.640548   -1776.0068          100          100          100 
    3000     102.5949   -17010.032   -508.39255    54.747706    71.502815   -1651.4282          100          100          100 
    3100     102.5796   -17029.147   -499.15025    13.668227    10.491233   -1521.6102          100          100          100 
    3200    102.68505   -17047.333   -449.92517    92.319434    130.81939   -1572.9143          100          100          100 
    3300    102.39139   -17066.296   -452.16553    70.276663    57.168276   -1483.9415          100          100          100 
    3400    102.10004   -17082.994   -506.20113   -17.159561   -13.788532   -1487.6553          100          100          100 
    3500    102.22193   -17100.358   -492.50081   -56.725638   -12.760505   -1408.0163          100          100          100 
    3600    101.13493   -17115.158    -444.5028   -71.362384    33.169657   -1295.3157          100          100          100 
    3700    102.24024   -17131.847   -405.82776   -27.600996    30.347923   -1220.2302          100          100          100 
    3800    102.15004    -17144.42   -367.27842    55.224924   -8.1826203   -1148.8776          100          100          100 
    3900    101.59133    -17155.78   -342.43964    20.749525    -44.79259   -1003.2759          100          100          100 
    4000    100.74749    -17166.34   -304.12413   -10.050428    53.104824   -955.42678          100          100          100 
    4100    101.41114   -17177.588   -191.89589    102.02142    67.060259   -744.76936          100          100          100 
    4200    101.39082   -17186.764   -209.44953    61.976988    46.269059   -736.59465          100          100          100 
    4300    101.30879   -17197.416   -202.61569    91.764253   -28.239439   -671.37189          100          100          100 
    4400     101.4363   -17207.577   -198.58912    10.226392   -18.088752     -587.905          100          100          100 
    4500    101.26028   -17214.974   -160.12374    10.355246    47.666565   -538.39303          100          100          100 
    4600    100.81036   -17225.264    -212.1273   -30.866236   -91.568289   -513.94739          100          100          100 
    4700    101.47558   -17233.071   -178.45757    -33.28846   -70.733468   -431.35077          100          100          100 
    4800    101.54102   -17243.599   -124.13685    20.988768   -35.793917   -357.60539          100          100          100 
    4900    101.54394    -17253.41   -120.54828    9.5235994    11.562963    -382.7314          100          100          100 
    5000    101.59911   -17261.995   -83.251483    25.930685    59.575904   -335.26104          100          100          100 
    5100    101.75864   -17276.464   -90.237475   -45.197756    36.911111   -262.42578          100          100          100 
    5200    101.00525   -17285.525   -4.9785683    70.619655    78.535303   -164.09066          100          100          100 
    5300    101.00698   -17295.649   -20.703023    61.099059    4.2199697    -127.4281          100          100          100 
    5400    101.83782   -17303.473   -34.048013   -25.327081    11.627196   -88.444152          100          100          100 
    5500    101.33083   -17313.638   -46.217929   -25.148238   -19.535284   -93.970264          100          100          100 
    5600    101.38095   -17321.827   -60.059814   -97.712297   -22.484508   -59.982637          100          100          100 
    5700    101.26149   -17328.577    -27.11339   -68.256522    34.295955   -47.379603          100          100          100 
    5800     100.5859   -17337.451   -26.474537   -49.666798    -102.7455    72.988685          100          100          100 
    5900    101.29502    -17344.84   -35.273853   -113.22173   -54.508263    61.908434          100          100          100 
    6000      100.976   -17354.423    66.875399    -46.40895    54.028501    193.00665          100          100          100 
    6100    100.95824   -17361.557    101.19683    63.588444    102.33147    137.67058          100          100          100 
    6200    100.93118   -17369.005    99.592475    29.802968    32.978475    235.99598          100          100          100 
    6300     101.5105    -17379.23    76.634651    75.194583   -3.0930363    157.80241          100          100          100 
    6400    100.78332   -17385.899    13.364857    5.6745063   -100.38277    134.80283          100          100          100 
    6500    100.90843   -17392.985    63.339928    85.516089   -45.233481    149.73718          100          100          100 
    6600    101.10913   -17399.252    21.004056    3.8209042   -61.911659    121.10292          100          100          100 
    6700    101.04349   -17409.045    11.556541    5.1991307   -74.284105     103.7546          100          100          100 
    6800     100.8578   -17415.467     3.332776   -68.965416    -15.87125    94.834994          100          100          100 
    6900    100.66402   -17422.881    26.819303   -82.111652    30.857406    131.71216          100          100          100 
    7000    100.66955   -17429.219    49.052913  -0.67773408    102.47209     45.36438          100          100          100 
    7100    100.73982   -17438.506     16.42829   -64.553282    55.965518    57.872633          100          100          100 
    7200    101.53788   -17447.857    -49.38064   -98.634455   -26.926165   -22.581299          100          100          100 
    7300    100.90678   -17457.045   -77.818028   -68.547108   -50.649086   -114.25789          100          100          100 
    7400    101.31979   -17463.562   -43.861097    13.387665   -34.160742   -110.81021          100          100          100 
    7500    100.77253   -17470.055    -54.80662    42.887466    23.039868   -230.34719          100          100          100 
    7600    101.24508   -17476.948   -79.776338    -21.38604   -39.445341   -178.49763          100          100          100 
    7700    101.04539   -17484.875   -45.058607    42.082793    10.979429   -188.23804          100          100          100 
    7800    101.10813   -17492.429   -66.614827    62.204706   -43.639046   -218.41014          100          100          100 
    7900    101.30744   -17496.537   -62.984392    30.349358    23.052811   -242.35535          100          100          100 
    8000    100.66811   -17502.603   -39.323776    86.512567    39.084212   -243.56811          100          100          100 
    8100     101.4812   -17509.118   -82.632017   -29.996648     57.53384   -275.43324          100          100          100 
    8200    100.89084   -17515.698   -69.487062   -27.042093    39.607562   -221.02665          100          100          100 
    8300    101.09042   -17521.319   -101.02357   -66.043311    8.3268966   -245.35429          100          100          100 
    8400    101.35255   -17528.357   -115.59514   -53.936941   -48.378516   -244.46995          100          100          100 
    8500    101.20815   -17533.228    -119.6619   -50.009815   -37.212612   -271.76328          100          100          100 
    8600    100.96236   -17538.791    -116.1609   -64.391124   -59.465896   -224.62569          100          100          100 
    8700    101.46725   -17542.358    -17.03998    61.646753     32.57171    -145.3384          100          100          100 
    8800    100.93745   -17549.152   -22.780387     91.54374    51.985147   -211.87005          100          100          100 
    8900    100.57933   -17553.083   -4.0653855     106.6312   -5.0757274   -113.75163          100          100          100 
    9000    100.52337   -17559.075  -0.46105243    39.882084    39.596907   -80.862148          100          100          100 
    9100    100.75146   -17562.902   -13.602309      98.0109    23.297002   -162.11483          100          100          100 
    9200    100.77798   -17567.887   -24.293117   -8.4444318    45.124536   -109.55945          100          100          100 
    9300    100.81576   -17572.017   -61.525882   -18.925526   -33.116644   -132.53548          100          100          100 
    9400    101.09153   -17577.153   -45.097694   0.78044039   -74.400649   -61.672874          100          100          100 
    9500    101.07127   -17581.531   -65.740828   -55.288711    -67.72016   -74.213612          100          100          100 
    9600    101.01594   -17585.756    -8.211334    13.515506   -21.241981   -16.907527          100          100          100 
    9700     100.7628   -17589.091    18.719068   -7.1840626    18.747954    44.593311          100          100          100 
    9800    101.24115   -17591.389    49.997153   -33.269863    109.60567    73.655652          100          100          100 
    9900    101.16947   -17595.197    46.257163   -39.567622    102.07877    76.260339          100          100          100 
   10000    100.14736   -17599.321    80.961201   -66.416294    135.51655    173.78335          100          100          100 
Loop time of 17.7935 on 28 procs for 10000 steps with 5538 atoms

Performance: 48.557 ns/day, 0.494 hours/ns, 562.004 timesteps/s
99.8% CPU use with 28 MPI tasks x 1 OpenMP threads

MPI task timing breakdown:
Section |  min time  |  avg time  |  max time  |%varavg| %total
---------------------------------------------------------------
Pair    | 10.89      | 14.631     | 16.556     |  56.6 | 82.22
Neigh   | 0.080258   | 0.16475    | 0.21854    |  11.8 |  0.93
Comm    | 0.75698    | 2.5553     | 6.0954     | 130.4 | 14.36
Output  | 0.026622   | 0.027074   | 0.03763    |   1.2 |  0.15
Modify  | 0.05351    | 0.075867   | 0.10509    |   6.2 |  0.43
Other   |            | 0.3398     |            |       |  1.91

Nlocal:    197.786 ave 276 max 71 min
Histogram: 6 2 0 0 0 0 2 7 4 7
Nghost:    347.5 ave 429 max 188 min
Histogram: 7 1 0 0 0 0 0 1 8 11
Neighs:    2004.71 ave 2937 max 326 min
Histogram: 4 4 0 0 0 0 0 4 11 5
FullNghs:  4009.43 ave 5830 max 829 min
Histogram: 7 1 0 0 0 0 0 4 9 7

Total # of neighbors = 112264
Ave neighs/atom = 20.2716
Neighbor list builds = 589
Dangerous builds = 13
Setting up Verlet run ...
  Unit style  : metal
  Current step: 10000
  Time step   : 0.001
Memory usage per processor = 8.77939 Mbytes
Step Temp TotEng Press Pxx Pyy Pzz Lx Ly Lz 
   10000    100.14736   -17599.321    80.961201   -66.416294    135.51655    173.78335          100          100          100 
   10100    102.41139   -17599.333    16.139298   -60.350595    10.602851    98.165639    99.995413    100.00663    100.01011 
   10200    103.53801   -17599.351    18.009425   -24.223866   -8.8813738    87.133515    99.983136    100.01589    100.03439 
   10300    107.61811    -17599.37   -2.8241844   -5.8129137   -102.94647    100.28683    99.966734    100.02155    100.06982 
   10400    111.08062   -17599.408    12.789699    22.558037   -56.119204    71.930265    99.950153    100.01497    100.11745 
   10500    116.54301   -17599.447    41.921131    35.241551    1.3067396    89.215103    99.933507    100.00168    100.17676 
   10600    117.96662   -17599.496    64.522698    49.480788    55.937355     88.14995     99.92088    99.989119    100.24862 
   10700    124.60101    -17599.54    56.736406    61.591576    42.780393     65.83725    99.915851    99.982963    100.33128 
   10800    126.65392   -17599.551   -7.6065841   -12.625327    19.213881   -29.408307    99.919919    99.983416    100.41723 
   10900    131.79617   -17599.525     -76.4497   -40.175928    -55.49241   -133.68076    99.925032    99.986425    100.49476 
   11000    136.37575   -17599.519   -54.788093   -4.1621064   -50.926018   -109.27616    99.925803    99.983337    100.55668 
   11100    137.36366   -17599.523   -68.399306   -22.158372   -81.593803   -101.44574    99.924456    99.972542    100.60419 
   11200    142.27655   -17599.563   -36.143776   -7.1383398   -72.613781   -28.679207    99.922019    99.952008    100.63747 
   11300    145.63357   -17599.609   -28.731334   -59.209296   -12.035956   -14.948751    99.919097    99.924387    100.66302 
   11400    149.00119   -17599.675    43.917737   -6.1993244    85.081753    52.870781    99.910377    99.898865    100.68391 
   11500    153.48711   -17599.747    68.699156    84.156502    88.642098    33.298867    99.900766    99.881991    100.71051 
   11600    160.55646   -17599.832    7.5692171    -50.47725    60.292864    12.892037    99.897771    99.874724    100.73893 
   11700     165.8778   -17599.937    -62.47494   -75.763808    1.4988411   -113.15985    99.888548    99.872409    100.76608 
   11800    166.01232    -17600.05   -26.791378    -18.35076     64.91393    -126.9373     99.87135    99.869175    100.78412 
   11900    171.55551   -17600.188    -30.74857    -3.703176   -58.146366   -30.396169    99.850165    99.870497    100.79096 
   12000    174.27561   -17600.348    6.0270485    26.580079   -61.760899    53.261965    99.824674     99.86591    100.79525 
   12100    177.72876   -17600.521    14.080927    14.968311    38.689749   -11.415279    99.798417    99.856217    100.80524 
   12200    177.50502   -17600.698    60.491631    30.459931    54.109727    96.905235     99.77659    99.848712    100.81988 
   12300    183.96919   -17600.907    70.265349    27.138512    16.026669    167.63086    99.763828    99.844124    100.84438 
   12400     188.0542   -17601.169    41.287736    12.095932   -23.800393    135.56767     99.76046    99.840144    100.88742 
   12500    193.55348   -17601.454     27.09373    2.0217431    15.180442    64.079004    99.761501    99.833709    100.95047 
   12600    199.73937   -17601.749   -64.867989   -49.664536   -149.54229    4.6028637    99.762728      99.8224    101.02691 
   12700     208.1497   -17602.002   -25.884101   -56.264361   -17.381971   -4.0059717    99.757236    99.796304    101.10122 
   12800    217.19414   -17602.328   -37.227527   -42.843732   -62.683314    -6.155534     99.74574     99.75795     101.1712 
   12900    220.11283   -17602.618   -16.717452   -10.742882   -63.510855    24.101383    99.730244    99.711315    101.23954 
   13000    227.42441   -17602.934    48.058007    -12.12496    169.37177   -13.072787    99.715383    99.662601    101.30774 
   13100    226.93339   -17603.192   -3.0027976    6.0792932    101.47741   -116.56509    99.702036    99.631668    101.37457 
   13200    231.42034   -17603.452   -4.3088145    47.703975    57.300693   -117.93111    99.691832    99.614352    101.42572 
   13300    238.12056   -17603.761    37.777666    41.493595    69.300328    2.5390746    99.686886    99.603522    101.45986 
   13400    245.64911   -17604.092   -66.441431   -47.253043   -71.995514   -80.075735    99.686378    99.600255    101.49096 
   13500    249.11996   -17604.432   -151.50689    -176.7204   -175.31478    -102.4855    99.682716    99.595039    101.51181 
   13600    254.25576   -17604.813    -25.72266    52.423718   -27.378865   -102.21283    99.665294    99.572481    101.51931 
   13700    267.23912   -17605.198   -16.769485   -22.037799   -28.036612   -0.2340441    99.653783    99.539849     101.5172 
   13800    272.54619   -17605.596    48.682439    23.422175    42.547555    80.077588    99.646603    99.505421    101.51335 
   13900    280.27449   -17606.026     104.1266    102.27642    34.703875    175.39949    99.642059     99.47684    101.51954 
   14000    284.43077   -17606.508    89.678319     82.68054    125.52926    60.825152    99.647394    99.455731    101.54974 
   14100    292.91424   -17607.012   -28.047861   -49.861016   -14.230245   -20.052323    99.659739    99.445948    101.59607 
   14200    291.93739   -17607.518   -72.321498   -92.937449   -104.13408   -19.892963     99.66466    99.435941    101.64004 
   14300    305.33071   -17608.061   -36.412521   -80.889324    53.503957   -81.852196    99.658508    99.419454     101.6772 
   14400    317.16469   -17608.645   -136.94406   -160.56042   -37.726212   -212.54554    99.645884    99.403789    101.69569 
   14500    327.24674   -17609.292   -19.283345    11.624507   -32.832847   -36.641694    99.623328    99.381383    101.68679 
   14600    326.63451   -17609.944    83.457441    142.61405    100.18231     7.575963    99.600987     99.36047    101.67152 
   14700    331.87635   -17610.639     34.37885    62.686138      114.667   -74.216589    99.593225    99.354163    101.65343 
   14800    347.66847   -17611.407    -19.68208    87.147632   -15.249566   -130.94431    99.600545    99.358282     101.6251 
   14900    355.12952   -17612.223   -13.609041   -44.360834    17.112848   -13.579137    99.622536    99.361343    101.58207 
   15000    355.94739   -17613.031   -68.955485   -78.746394   -125.06883   -3.0512259    99.642312    99.359075    101.53787 
   15100    366.21867   -17613.898    13.761634     59.69092    10.667517   -29.073535    99.649379    99.344613    101.49495 
   15200    371.44784   -17614.818   -78.113371   -57.585896   -16.641318    -160.1129     99.65958    99.325028    101.44752 
   15300    381.15534   -17615.787    32.579136   -16.977904    139.62728   -24.911973    99.660529    99.307656    101.38891 
   15400    387.55999   -17616.763    20.593096   -21.515447    150.61021   -67.315475    99.653852    99.303289    101.33001 
   15500    399.14176   -17617.826    40.219278    100.57148   0.87976142    19.206593    99.652534    99.315082    101.26502 
   15600    407.11564   -17618.887    8.7381256     23.02392    41.426641   -38.236184    99.660067    99.333858    101.20202 
   15700     420.9747   -17620.038   -57.597825   -35.796687   -60.778998   -76.217792    99.668871    99.353882    101.13575 
   15800    426.07184   -17621.248   -20.897131    57.034601    -59.62758   -60.098415     99.67057    99.373127    101.06316 
   15900    435.57423   -17622.525   -34.254819    15.530272    10.554992   -128.84972     99.67394    99.387579    100.98419 
   16000     440.4345   -17623.827   -71.782464   -62.779763   -145.10863    -7.459003    99.676305    99.394375    100.89759 
   16100    457.99532    -17625.13   -13.554026   -86.076324    -184.6801    230.09435    99.671915     99.38582    100.81721 
   16200    469.37019   -17626.491    93.679018    65.346541     93.17927    122.51124    99.658357    99.362369     100.7618 
   16300     483.5809   -17627.914     152.7549    209.99743    -29.53288    277.80017    99.653071    99.345395    100.72904 
   16400    486.33464   -17629.453    146.20803    176.81127   -101.29666    363.10949     99.66654    99.337184    100.72807 
   16500    488.05047   -17631.115    109.72903    -17.43674    1.4014188    345.22241      99.6962    99.329893    100.76393 
   16600    485.11716   -17632.806   -4.0890594   -94.439821    5.2481521    76.924491    99.730079    99.323971     100.8325 
   16700    502.32449   -17634.476   -104.10466   -107.99884   -169.35784   -34.957299     99.75645    99.314812    100.91403 
   16800     491.4603   -17636.121   -48.118129   -247.31205    80.481492    22.476173    99.769217    99.291613    100.98924 
   16900    505.44742   -17637.844   -44.540705   -206.56783    83.413961   -10.468251    99.752544    99.273051    101.05859 
   17000    505.98162   -17639.562    46.172447     182.7068    74.751991   -118.94145    99.721277    99.263281    101.12167 
   17100    509.79364   -17641.314    54.130901    171.07933    19.094273   -27.780898    99.705744    99.263801    101.17472 
   17200     507.8702   -17643.094   -38.439461    69.684474   -61.624016   -123.37884     99.70896    99.270863    101.21644 
   17300    510.83851   -17644.921    27.623145    141.26031  -0.56118859   -57.829689     99.72633    99.270403    101.23965 
   17400     521.6637   -17646.806     16.43882   -35.237427    44.189629    40.364258     99.75744    99.268847    101.25185 
   17500    518.58091   -17648.697   -82.752236   -103.65836   -54.845154   -89.753189    99.785176    99.267486    101.26224 
   17600    522.49123   -17650.608    11.149897    4.1971866   -44.122359    73.374863    99.799521    99.258536    101.26554 
   17700    525.72023   -17652.582    19.898401   -38.741366    40.858664    57.577903    99.809627    99.248933    101.27462 
   17800    519.06319   -17654.558   -19.696821   -96.286295   -40.612176    77.808009    99.814032    99.244021    101.29462 
   17900    517.83993   -17656.573    -11.08452   -54.936332   -75.524675    97.207448    99.809679    99.238893    101.32611 
   18000    528.03558   -17658.601    50.151826    12.147521    82.916189    55.391769    99.802385    99.226837    101.36839 
   18100    528.78291   -17660.679    53.531757   -18.875436    21.808737    157.66197    99.795939    99.221877    101.42055 
   18200    533.60051   -17662.827    80.426448    150.83091   -42.888415    133.33685    99.789513    99.219271    101.49186 
   18300    528.24675   -17664.986    35.995647    53.029259   -3.7929383    58.750621    99.794824    99.213766    101.58318 
   18400    538.75138   -17667.084    13.362585   -59.619548    93.555761    6.1515423    99.807959    99.211535    101.67826 
   18500     532.6843   -17669.181   -57.980327    -2.986886   -43.980978   -126.97312    99.817003    99.219834    101.76678 
   18600    532.77453   -17671.268   -140.05625   -155.06423   -118.13613   -146.96839    99.814422    99.222642    101.84121 
   18700    540.01188   -17673.398    10.339134   0.45175411    114.21803   -83.652386    99.797457    99.213378    101.89615 
   18800    538.64124   -17675.563    16.275902   -10.955383     152.8303   -93.047209     99.78265    99.215006     101.9364 
   18900     537.4002   -17677.785    7.9565991    14.097786    39.044033   -29.272021    99.767044    99.235733    101.96705 
   19000    537.64729   -17680.015    -11.43068   -37.667321   -7.7020385    11.077319    99.748252    99.264958    101.99261 
   19100    542.64408   -17682.233     26.36352    147.96591   -1.8042186   -67.071129    99.732437    99.292532    102.01308 
   19200    541.14809   -17684.472   -14.631544    75.110451   -170.20901    51.203929    99.731256    99.318516    102.02617 
   19300    533.30045   -17686.718    38.581582    192.58087   -161.65665    84.820528    99.739122    99.323167    102.04325 
   19400     543.7518   -17689.004   -41.177133   -83.804038   -112.87526    73.147896    99.756718    99.304577    102.07146 
   19500    539.85889     -17691.3    31.300564    112.54221    10.482297   -29.122814    99.770336    99.278342    102.10688 
   19600    542.74477   -17693.611    18.133125   -60.571426    39.981133    74.989666    99.789086     99.25378    102.14641 
   19700    541.31501   -17695.966    109.82905   -64.094153    166.64931    226.93201    99.801948     99.23597     102.2007 
   19800     541.3534   -17698.356    8.0018867   -50.238655    65.201472    9.0428426    99.810194      99.2311    102.27871 
   19900    535.69828   -17700.699    12.414368   -139.27453    162.11805    14.399586    99.808663    99.234948    102.36576 
   20000    539.42487   -17703.044    -10.65015    48.121508    18.030713   -98.102671    99.794943    99.249829    102.45287 
Loop time of 21.972 on 28 procs for 10000 steps with 5538 atoms

Performance: 39.323 ns/day, 0.610 hours/ns, 455.125 timesteps/s
99.9% CPU use with 28 MPI tasks x 1 OpenMP threads

MPI task timing breakdown:
Section |  min time  |  avg time  |  max time  |%varavg| %total
---------------------------------------------------------------
Pair    | 12.346     | 17.938     | 20.436     |  75.2 | 81.64
Neigh   | 0.05752    | 0.21185    | 0.29835    |  20.1 |  0.96
Comm    | 0.67898    | 3.0346     | 8.0189     | 172.7 | 13.81
Output  | 0.015665   | 0.016159   | 0.027685   |   1.7 |  0.07
Modify  | 0.25716    | 0.74673    | 1.5077     |  46.6 |  3.40
Other   |            | 0.02502    |            |       |  0.11

Nlocal:    197.786 ave 283 max 48 min
Histogram: 8 0 0 0 0 0 0 1 14 5
Nghost:    354.75 ave 460 max 168 min
Histogram: 8 0 0 0 0 0 0 2 11 7
Neighs:    1944.32 ave 2944 max 185 min
Histogram: 4 4 0 0 0 0 0 2 14 4
FullNghs:  3888.64 ave 5819 max 683 min
Histogram: 8 0 0 0 0 0 0 2 14 4

Total # of neighbors = 108882
Ave neighs/atom = 19.6609
Neighbor list builds = 742
Dangerous builds = 22
WARNING: Shell command 'mkdir' failed with error 'File exists' (../input.cpp:1126)
Initial Length, L0: 102.452873705138
ERROR: Cound not find dump_modify ID (../output.cpp:611)
