LAMMPS (16 Feb 2016)
WARNING: OMP_NUM_THREADS environment is not set. (../comm.cpp:90)
  using 1 OpenMP thread(s) per MPI task
Lattice spacing in x,y,z = 3.2 5.54256 5.22558
Created orthogonal box = (0 0 0) to (100 100 100)
  2 by 2 by 7 MPI processor grid
Lattice spacing in x,y,z = 3.2 5.54256 5.22558
Created 5538 atoms
WARNING: Shell command 'mkdir' failed with error 'File exists' (../input.cpp:1126)
Neighbor list info ...
  2 neighbor list requests
  update every 1 steps, delay 10 steps, check yes
  max neighbors/atom: 2000, page size: 100000
  master list distance cutoff = 7.8
  ghost atom cutoff = 7.8
  binsize = 3.9, bins = 26 26 26
Setting up Verlet run ...
  Unit style  : metal
  Current step: 0
  Time step   : 0.001
Memory usage per processor = 4.77259 Mbytes
Step Temp TotEng Press Pxx Pyy Pzz Lx Ly Lz 
       0          100    11762.587    34252.827   -564.98021    -542.3081    103865.77          100          100          100 
     100    296.05314   -7364.5802    1178.3475    81.113653    13.145434    3440.7833          100          100          100 
     200    142.94843   -7855.1695    738.40692   -359.79837   -358.77535    2933.7945          100          100          100 
     300    110.50241    -7949.069    540.02716   -422.98665   -392.74093     2435.809          100          100          100 
     400    104.53119   -7976.3402    668.37778    -168.5534   -152.66041    2326.3472          100          100          100 
     500    102.39279   -7998.7297    683.75724    69.588582    44.793048    1936.8901          100          100          100 
     600    98.452207   -8007.0306    692.95229    218.27746     240.9714     1619.608          100          100          100 
     700    98.535084   -8009.8993    751.07534    291.28457    341.85218    1620.0893          100          100          100 
     800    103.20295   -8011.8236    754.49712    300.69846    366.97992     1595.813          100          100          100 
     900    98.807857   -8012.0784    639.58028    184.78847    213.36054    1520.5918          100          100          100 
    1000    102.02152   -8019.2261    399.62145    1.5335931   -55.383849    1252.7146          100          100          100 
    1100    101.24661   -8026.4613    234.50438   -177.00692    -221.1417    1101.6618          100          100          100 
    1200    101.50423   -8036.0709    97.040207   -286.34935   -293.92955    871.39952          100          100          100 
    1300    100.04946   -8039.3232    145.83059   -195.71644    -247.7741     880.9823          100          100          100 
    1400    99.537254   -8037.4201    245.62035   -77.564102   -102.26213    916.68728          100          100          100 
    1500    97.475246   -8035.4231    342.45961    65.774376     37.87869    923.72577          100          100          100 
    1600    98.816592   -8026.2555    499.60731    266.19854    170.04892    1062.5745          100          100          100 
    1700    99.352036   -8023.2921    596.18597    330.72558    319.48811    1138.3442          100          100          100 
    1800     100.9573    -8025.552    503.42178    243.49514    194.79392    1071.9763          100          100          100 
    1900    101.10344   -8037.6694    298.56322    30.698747   -12.735059    877.72597          100          100          100 
    2000    100.64284   -8040.6387    207.69629   -120.48633   -116.06896    859.64417          100          100          100 
    2100    100.68506   -8041.0003    156.73658   -214.98114   -152.05211    837.24297          100          100          100 
    2200    99.357897   -8037.8782    136.88358   -260.00729   -195.12609    865.78413          100          100          100 
    2300    99.783357   -8037.5037    228.58533   -153.70659     -100.546    940.00859          100          100          100 
    2400    99.439114   -8035.7338    314.03321   -116.14911    33.584119    1024.6646          100          100          100 
    2500    99.164352   -8036.7023    462.89109    36.515041    177.38427    1174.7739          100          100          100 
    2600    99.489781   -8035.1351     562.4197    126.47276    272.88796    1287.8984          100          100          100 
    2700    99.648707   -8036.1402    518.53453    106.73998    187.31815    1261.5455          100          100          100 
    2800    100.80146   -8038.8218    490.33057    110.96983    149.76842    1210.2535          100          100          100 
    2900    100.63704   -8042.5896    392.81421    50.136434    45.300584    1083.0056          100          100          100 
    3000    99.879411   -8043.0282    300.05854   -31.111522   -80.751943    1012.0391          100          100          100 
    3100    99.288816   -8042.2281    222.97294   -59.711809   -200.35837    928.98899          100          100          100 
    3200    98.794165   -8036.1645    210.30143   -66.763627   -222.81435    920.48226          100          100          100 
    3300     99.00863   -8030.9192    258.17844   -23.375148   -157.94874     955.8592          100          100          100 
    3400    100.82096   -8033.0212    318.36388    100.26194   -133.10007    987.92975          100          100          100 
    3500    100.24841   -8035.2129    312.10037    55.625514   -84.242035    964.91763          100          100          100 
    3600    100.54787   -8039.3188    338.92531    79.567199   -30.680584    967.88933          100          100          100 
    3700    100.53901   -8043.5062    378.05123    89.017154    52.657512    992.47903          100          100          100 
    3800    99.797485   -8043.0585    415.58982    62.799135    135.37674    1048.5936          100          100          100 
    3900    99.479953   -8041.8078    414.04233    6.1060579    173.38419    1062.6367          100          100          100 
    4000    99.409375    -8039.875    384.22767   -44.198962    121.58927    1075.2927          100          100          100 
    4100    99.436008   -8037.8982     355.4565   -85.903961    64.158996    1088.1145          100          100          100 
    4200    99.638847   -8037.0948    315.85494   -110.49424    -29.43073    1087.4898          100          100          100 
    4300    100.43213   -8037.0953     271.4952   -143.21247   -88.375955     1046.074          100          100          100 
    4400     100.4601   -8037.1696    280.27598   -136.71766   -89.190485    1066.7361          100          100          100 
    4500     100.7321   -8040.0002    302.01451   -61.323665   -72.922117    1040.2893          100          100          100 
    4600    100.57276   -8043.6364    352.83086    8.1346836   0.55973472    1049.7981          100          100          100 
    4700    100.15778   -8043.9995     419.2484    89.977068     88.64193    1079.1262          100          100          100 
    4800    99.423692   -8041.9336    433.24184    133.30459    106.67609    1059.7448          100          100          100 
    4900    99.412537   -8037.6594    467.37878    171.39216    126.65012    1104.0941          100          100          100 
    5000    99.055893   -8037.2362    426.72473    165.30636    41.330739    1073.5371          100          100          100 
    5100    100.07558    -8036.793    331.33352    28.330535   -34.503606    1000.1736          100          100          100 
    5200    101.01906   -8039.8473    229.40206   -95.517173   -157.72232    941.44568          100          100          100 
    5300    99.545982   -8041.0302    188.50788    -136.4763   -205.13881    907.13874          100          100          100 
    5400    100.53858   -8043.0864    209.38138    -144.0294   -154.72963    926.90318          100          100          100 
    5500    99.329422   -8042.0703    277.45199   -110.78399   -67.143715    1010.2837          100          100          100 
    5600    99.858957   -8042.0707    367.32667   -5.9681443    62.666606    1045.2815          100          100          100 
    5700    100.13725   -8041.6721    477.88679    127.17624    166.89346    1139.5907          100          100          100 
    5800    100.24057   -8041.3754    518.17637    151.44664    219.73956    1183.3429          100          100          100 
    5900    100.57818   -8041.3753    500.09686     128.1238    197.16689    1174.9999          100          100          100 
    6000    99.058868    -8041.422     428.8094    82.523625    69.590626    1134.3139          100          100          100 
    6100     100.5638   -8044.2594    312.20907   -73.603899   -28.572466    1038.8036          100          100          100 
    6200    99.784223   -8045.0903    226.70197   -148.20129   -155.95221    984.25941          100          100          100 
    6300    99.861816   -8045.0903    192.77865    -182.7327   -164.34217     925.4108          100          100          100 
    6400    99.334776   -8044.1837     215.0112   -143.62618   -143.28475    931.94452          100          100          100 
    6500    100.03096   -8043.3786    282.96694   -27.305472   -92.848323    969.05461          100          100          100 
    6600    99.829436   -8041.8887    396.26766    93.003774    61.615635    1034.1836          100          100          100 
    6700    100.01353   -8040.6407    442.49225    163.16529    108.90631    1055.4052          100          100          100 
    6800    99.948693   -8041.5811    461.87522    209.55611    117.54213    1058.5274          100          100          100 
    6900    100.37131   -8042.4761    451.21594     167.2418    127.38333    1059.0227          100          100          100 
    7000    100.93727   -8044.0342    371.10897    87.975953   -9.0661883    1034.4171          100          100          100 
    7100      99.5163   -8045.3572     306.9374    1.2493992    -86.61623     1006.179          100          100          100 
    7200    99.212541   -8045.7581    238.10383   -150.57603   -111.75595    976.64347          100          100          100 
    7300    99.381116   -8043.7182    204.61514   -186.86864   -181.88879    982.60285          100          100          100 
    7400    100.19837   -8042.7338    246.27623    -180.3614    -97.61628    1016.8064          100          100          100 
    7500    99.169723   -8041.8205    343.62619   -73.823004    8.3080461    1096.3935          100          100          100 
    7600    99.477464   -8041.7547    401.22007    1.3494532    85.245592    1117.0652          100          100          100 
    7700    100.05723   -8042.6246    459.56914    64.018229    192.36875    1122.3205          100          100          100 
    7800    100.76003   -8042.6249    484.46709    133.22962    183.86107    1136.3106          100          100          100 
    7900    100.55528   -8043.8597    433.28271    93.004879    135.21278    1071.6305          100          100          100 
    8000    99.986206   -8045.9355    397.65602    76.788137    80.596315    1035.5836          100          100          100 
    8100      99.0465   -8045.5123    307.29669   -9.8726157    -46.90616    978.66886          100          100          100 
    8200    99.122158   -8043.2927    241.78877   -88.600516    -109.6268    923.59363          100          100          100 
    8300    100.14743   -8040.8871    208.03439   -112.77396   -166.70691    903.58404          100          100          100 
    8400    99.294726   -8041.3131    188.82191     -136.288   -190.65674    893.41048          100          100          100 
    8500    100.39888   -8041.2166    238.58253    -73.55313   -142.60946    931.91019          100          100          100 
    8600    100.43472   -8042.6951    318.19809     31.86586   -44.551321    967.27973          100          100          100 
    8700    99.714673   -8043.6934    375.66145    97.936793    12.766204    1016.2813          100          100          100 
    8800    100.01073   -8045.4559    467.02791    195.24512    118.93343    1086.9052          100          100          100 
    8900    100.01642   -8044.7378    466.84226    147.94925     154.8361    1097.7414          100          100          100 
    9000    99.559323   -8044.7376    433.90395    82.745665    123.41739    1095.5488          100          100          100 
    9100    100.56996   -8043.7005    387.10054    17.230394    40.765743    1103.3055          100          100          100 
    9200    99.392589    -8041.728    312.23681   -98.147363   -38.208332    1073.0661          100          100          100 
    9300    99.282912   -8042.1851    254.65737   -154.70025   -112.40815    1031.0805          100          100          100 
    9400    100.72528   -8041.6961     198.0694    -229.1403   -161.62274    984.97125          100          100          100 
    9500    100.56526   -8042.8193    244.16901   -180.78595   -82.670063    995.96305          100          100          100 
    9600    100.78151   -8043.5824    322.22078   -71.071788    8.1603962    1029.5737          100          100          100 
    9700    100.93664   -8043.9599    410.61123    63.547422    92.939007    1075.3472          100          100          100 
    9800    99.492982   -8043.9597    462.41625    144.04194    152.42535    1090.7814          100          100          100 
    9900    99.283019   -8043.5238    487.19093    181.88218     190.0816     1089.609          100          100          100 
   10000    99.362016   -8042.6883    456.82066    163.03407    130.76961    1076.6583          100          100          100 
Loop time of 6.37535 on 28 procs for 10000 steps with 5538 atoms

Performance: 135.522 ns/day, 0.177 hours/ns, 1568.541 timesteps/s
99.8% CPU use with 28 MPI tasks x 1 OpenMP threads

MPI task timing breakdown:
Section |  min time  |  avg time  |  max time  |%varavg| %total
---------------------------------------------------------------
Pair    | 4.448      | 5.1307     | 5.6596     |  13.9 | 80.48
Neigh   | 0.15189    | 0.18387    | 0.21036    |   4.0 |  2.88
Comm    | 0.29863    | 0.87372    | 1.5732     |  34.8 | 13.70
Output  | 0.035933   | 0.036039   | 0.037059   |   0.1 |  0.57
Modify  | 0.030688   | 0.042627   | 0.05954    |   3.7 |  0.67
Other   |            | 0.1084     |            |       |  1.70

Nlocal:    197.786 ave 229 max 163 min
Histogram: 1 4 2 3 2 4 4 0 6 2
Nghost:    700.714 ave 750 max 652 min
Histogram: 2 3 2 3 3 3 7 3 1 1
Neighs:    7080.61 ave 8530 max 5608 min
Histogram: 2 2 3 4 1 5 5 3 1 2
FullNghs:  0 ave 0 max 0 min
Histogram: 28 0 0 0 0 0 0 0 0 0

Total # of neighbors = 198257
Ave neighs/atom = 35.7994
Neighbor list builds = 633
Dangerous builds = 69
Setting up Verlet run ...
  Unit style  : metal
  Current step: 10000
  Time step   : 0.001
Memory usage per processor = 4.77263 Mbytes
Step Temp TotEng Press Pxx Pyy Pzz Lx Ly Lz 
   10000    99.362016   -8042.6883    456.82066    163.03407    130.76961    1076.6583          100          100          100 
   10100    100.88876   -8043.1198    350.32167    86.709273    17.552543    946.70321    100.00911    100.00562    100.06795 
   10200    100.29077   -8044.0751    125.39325   -132.70615   -179.97809    688.86398    100.02638    100.01184    100.25679 
   10300    99.435845   -8045.0351   -22.714723   -207.33703   -291.20573    430.39858     100.0286    99.996149    100.52919 
   10400    98.631258   -8045.7613   -85.731584   -177.83769   -270.93876     191.5817     100.0062    99.946488    100.83844 
   10500    100.75422   -8046.0728   -75.271909   -92.303618   -139.77547    6.2633594    99.964318    99.870237    101.13722 
   10600    101.73132   -8046.0384   -10.010125    22.116247    46.272778   -98.419401    99.918768    99.789669    101.39177 
   10700    100.03409   -8045.8053    70.115411    164.14908     223.6556   -177.45845    99.886359    99.730094    101.58943 
   10800    98.615666   -8045.5625    83.212711    264.56702    263.31475   -278.24364     99.88028    99.706901    101.72813 
   10900    97.326201   -8045.4594    3.6598021    164.22195    223.98683   -377.22937    99.904693     99.71913    101.80865 
   11000    98.124227   -8045.4686   -109.18842    16.182522    90.973586   -434.72137    99.945129    99.756246      101.831 
   11100    98.277029   -8045.5622   -233.57372   -132.51705   -79.827576   -488.37654    99.982157    99.799198     101.7952 
   11200    99.056682   -8045.7889   -265.20545   -189.78406    -163.0134   -442.81891    99.998977    99.827772    101.70272 
   11300    98.322932   -8046.1279    -225.3783   -185.50918    -169.0395   -321.58623     99.98949    99.832811    101.56426 
   11400    99.969411    -8046.414   -93.597433   -58.644282   -64.831177   -157.31684    99.958689    99.817277    101.39873 
   11500    98.554559   -8046.4841    41.253824    44.824334    48.642196    30.294942    99.922996    99.795126    101.23018 
   11600    98.770668   -8046.3522    161.73972    184.39835    121.85167    178.96914    99.898696    99.781745    101.08264 
   11700    99.492984   -8046.1956    215.11689    232.66678    134.68137    278.00252    99.899919    99.784619    100.97308 
   11800    97.015987   -8046.1218    152.34253     117.4494     65.38929     274.1889    99.927629    99.802897    100.90868 
   11900      97.8139   -8046.0892    48.082347   -22.381264   -74.007136    240.63544    99.966617    99.826512     100.8847 
   12000    98.582126   -8046.0753   -31.194113   -109.95317   -166.43882    182.80965     99.99999    99.839532     100.8928 
   12100    99.832036   -8046.0985    -73.54776   -169.47938   -190.67776    139.51386     100.0171    99.832018      100.924 
   12200     100.6809    -8046.171   -49.954754    -166.8568   -107.52319    124.51572    100.01222    99.802615    100.97183 
   12300    100.59674   -8046.2578    18.225344   -83.000663   -13.641784    151.31848    99.987764    99.761688    101.03388 
   12400    100.35268   -8046.3208    96.707727    35.672081    111.93948    142.51161    99.955234    99.722746    101.11032 
   12500     99.19916   -8046.3593    160.22089    135.58563    217.04904    128.02801    99.929553    99.700788    101.19931 
   12600    97.632454   -8046.4013    98.271078    109.10846    160.06242    25.642349    99.921213    99.704974     101.2966 
   12700    98.616793   -8046.4132     26.50454    39.882379    104.50055   -64.869306    99.926899    99.728629    101.39006 
   12800    98.087016   -8046.3594   -89.665425   -42.623029   -35.835186   -190.53806    99.937367    99.762487    101.46713 
   12900    97.055991   -8046.2741   -160.14027   -84.251702   -124.23287   -271.93624    99.942438    99.790423    101.51421 
   13000    98.485105   -8046.2473   -169.01152   -63.914638   -154.39855   -288.72137    99.937483    99.800498    101.52332 
   13100    99.548363   -8046.3087   -132.07481   -31.922597   -112.63987   -251.66195    99.923675    99.789606      101.495 
   13200    101.11599   -8046.3887   -58.047807    40.305394   -35.966384   -178.48243     99.90695    99.764758    101.43735 
   13300      98.8145   -8046.4344    51.670796    148.22558    82.752741    -75.96593    99.898125    99.738356    101.36242 
   13400      98.1971   -8046.4494    72.310289    134.15198    91.220182   -8.4412893    99.906844    99.722215    101.28319 
   13500    98.376089   -8046.4562     70.10238    73.961175    113.86534    22.480626    99.931931    99.719068    101.20892 
   13600     97.54954   -8046.4471    17.347424   -41.477064    43.601473    49.917864    99.964299    99.729729    101.14394 
   13700      98.6049   -8046.4101   -19.968366   -93.300746   -37.307089    70.702739     99.98967    99.745665    101.09089 
   13800    98.677192   -8046.3754   -56.320958   -173.35072   -78.566276    82.954121    100.00006    99.755671    101.05092 
   13900     99.86443   -8046.3621    -24.04124   -129.32371   -70.029617    127.22961    99.990561    99.754624    101.02543 
   14000    100.32088   -8046.3683    30.380385   -52.203214   -22.997871    166.34224    99.966368    99.744815    101.01848 
   14100    99.045188   -8046.3843    98.446307    39.966097    39.012196    216.36063    99.937012    99.733302    101.03388 
   14200     98.96218    -8046.419     112.7359    77.895644    62.803186    197.50886    99.913632    99.727108    101.07418 
   14300    99.726399   -8046.4759    113.41531    110.93406    79.701135    149.61073    99.902239    99.729165     101.1359 
   14400    98.126374   -8046.5256    61.543063     84.12796    32.300169    68.201059     99.90432    99.740441    101.21166 
   14500    96.692815   -8046.5338   -10.189284    10.233279   -13.025137   -27.775992    99.915365    99.754924    101.29024 
   14600    98.697476   -8046.4901   -100.06707   -63.349041   -108.32599   -128.52619    99.927233    99.765296     101.3588 
   14700    99.298093   -8046.4406   -112.83931   -49.227425   -119.05209   -170.23842    99.932178    99.762435    101.40664 
   14800    99.436552   -8046.4208   -98.444129   -48.932526   -72.374197   -174.02566    99.929952    99.745859    101.43025 
   14900    100.91168   -8046.4225   -57.885397    7.0769955   -12.928944   -167.80424    99.922419    99.721911    101.43085 
   15000    98.604324    -8046.432    2.6746646    54.136385    74.379394   -120.49179    99.915826    99.697691     101.4107 
   15100     96.96399    -8046.441    35.747474    64.237034    128.45144   -85.446054    99.915563    99.683024    101.37534 
   15200    99.506866    -8046.462    35.956521     61.23621    107.23344   -60.600086    99.923602    99.684513    101.33036 
   15300    98.480532   -8046.4816    13.680718   -2.5805117    86.509689   -42.887024    99.938266    99.700035    101.28077 
   15400    98.515127   -8046.4891   -38.523274   -67.817159   -23.257874   -24.494789    99.951935    99.725082    101.22977 
   15500    100.08118   -8046.4754   -37.515749   -83.041803   -54.250868    24.745423     99.95762    99.748258    101.18002 
   15600    100.63294   -8046.4552   -45.889336   -78.687357   -109.00402    50.023364    99.952634    99.763437    101.13624 
   15700    100.25413     -8046.44   -26.983738   -45.435626   -109.83163    74.316045    99.937758    99.764637    101.10181 
   15800    98.347608   -8046.4245    48.668909    24.289361   -25.969207    147.68657    99.918497    99.752506     101.0809 
   15900    97.203641   -8046.4126    96.728885    79.465694    26.402712    184.31825    99.903611    99.736761    101.07976 
   16000    98.854783   -8046.4275    104.43192    83.146779    44.606315    185.54267    99.899339    99.724815    101.10215 
   16100    99.185251    -8046.465    82.968972    67.674557     44.71739    136.51497    99.906238    99.719306    101.14618 
   16200    98.303277   -8046.4976    43.642868    28.895128    28.049153    73.984324    99.921046    99.719736    101.20413 
   16300    98.930169   -8046.5023   -11.455584    -25.26519   -6.2640463   -2.8375158    99.937908    99.723249    101.26709 
   16400    99.622199   -8046.4765   -75.168118    -77.45694    -63.61961   -84.427804    99.950279    99.725451    101.32562 
   16500    101.48196   -8046.4387   -96.719231   -87.234271    -61.69814   -141.22528    99.952214    99.720235    101.36976 
   16600    100.19777   -8046.4158   -63.621409   -32.685643   -13.011943   -145.16664    99.943946    99.708026    101.39423 
   16700     99.65123   -8046.4019   -31.966526    3.0991631    27.649546   -126.64829    99.933013    99.695502    101.39965 
   16800    97.731932   -8046.3999     16.48495    67.269742    86.240702   -104.05559    99.924544    99.687693    101.38752 
   16900    98.151184   -8046.4125   -1.7242111    28.882738    82.823061   -116.87843    99.923017      99.6896    101.36066 
   17000    97.212083   -8046.4326    17.557586    39.362985    75.679145   -62.369373    99.926333    99.701548    101.32103 
   17100    98.021924    -8046.447   -8.6603584   -14.289675    46.563877   -58.255276    99.932599    99.721048    101.27472 
   17200    99.420671   -8046.4507   -33.033873   -53.508099   -37.663163   -7.9303563    99.935893    99.744016     101.2247 
   17300    98.653864   -8046.4362   -48.550817   -57.523764   -98.075871    9.9471845     99.93281    99.761214    101.17551 
   17400      99.9186   -8046.4165   -18.118607   -29.510643   -92.625583    67.780405    99.923206    99.766369     101.1309 
   17500    99.697683   -8046.3891    24.994364    44.713374   -91.167766    121.43748    99.911572     99.76009     101.0985 
   17600    100.68207   -8046.3718     70.82797    94.198545    -21.67726    139.96263    99.906321     99.74401    101.08427 
   17700    98.154527   -8046.3714    91.875792    71.206566    31.692157    172.72865    99.912368     99.72559    101.09014 
   17800    98.566595   -8046.3888    66.307581      25.5248    33.679849    139.71809    99.926426    99.711096    101.11706 
   17900     98.44289    -8046.411    54.877867    9.9878456    38.634663    116.01109    99.942981     99.70183    101.16007 
   18000    99.170073   -8046.4234   -8.0418781   -66.217925    22.657624    19.434667    99.958489    99.698249    101.21411 
   18100    99.847399   -8046.4091    -35.58543   -94.662983    15.886256   -27.979564    99.965425    99.698239    101.26921 
   18200    100.61224   -8046.3838   -62.688872   -90.577075   -5.8307529   -91.658788     99.95977    99.700026    101.31682 
   18300    98.981923   -8046.3614   -42.367324   -27.420383   -4.9786892     -94.7029     99.94307    99.701488    101.35109 
   18400    98.701968    -8046.341   -24.003151    13.607702    30.548062   -116.16522    99.922426    99.702245    101.37133 
   18500    97.928133   -8046.3257    -13.76827    37.293294    21.983062   -100.58117      99.9037    99.705697    101.37598 
   18600    97.566596   -8046.3177    6.6450896    85.724736    34.360777   -100.15024    99.892108    99.713237    101.36652 
   18700    98.350462   -8046.3247    3.7846241    78.413459    39.718302   -106.77789    99.891796    99.725342    101.34431 
   18800     98.32911   -8046.3384   -37.163211    25.212944   -42.800224   -93.902352    99.901439    99.740195    101.31018 
   18900    98.462636   -8046.3488   -44.766818   -26.634213   -50.288091   -57.378149    99.914758    99.750073    101.26555 
   19000    99.525713   -8046.3452   -32.426423   -8.0118304   -81.810518   -7.4569197    99.924386    99.752607    101.21535 
   19100     99.15484   -8046.3343   -24.226032   -29.233002   -75.014776    31.569681    99.930855    99.745311    101.16666 
   19200    100.02875   -8046.3108    19.120241   -17.425581   -24.255813    99.042117    99.933471    99.729645    101.12507 
   19300    99.363299     -8046.28    49.936687    1.1968222    19.721646    128.89159     99.93372    99.711489    101.09884 
   19400    99.203116   -8046.2591    73.261819    11.986982    61.397916    146.40056    99.934752    99.696608    101.09106 
   19500    99.187784   -8046.2563    90.398312    17.255073    87.668387    166.27148    99.937421    99.690367    101.10278 
   19600    99.264773    -8046.276    55.724916    -1.105993    54.461555    113.81919    99.941299     99.69472    101.13452 
   19700    99.043432   -8046.2867   -1.6029403   -27.075324   -25.190138     47.45664    99.943978    99.705387    101.17959 
   19800    100.63883   -8046.2865   -7.9334062    -38.06558   -9.6417116    23.907073    99.943528    99.714883    101.22932 
   19900    98.157447   -8046.2721   -45.833536   -54.542914   -38.285126   -44.672567    99.938054    99.722484    101.27884 
   20000    99.763665   -8046.2456   -59.263387   -24.369354   -64.554331   -88.866475     99.92549    99.724548    101.32002 
Loop time of 6.58532 on 28 procs for 10000 steps with 5538 atoms

Performance: 131.201 ns/day, 0.183 hours/ns, 1518.529 timesteps/s
99.8% CPU use with 28 MPI tasks x 1 OpenMP threads

MPI task timing breakdown:
Section |  min time  |  avg time  |  max time  |%varavg| %total
---------------------------------------------------------------
Pair    | 4.3784     | 5.0404     | 5.5252     |  14.6 | 76.54
Neigh   | 0.12661    | 0.16097    | 0.1887     |   4.1 |  2.44
Comm    | 0.2245     | 0.86406    | 1.6278     |  43.0 | 13.12
Output  | 0.074538   | 0.074613   | 0.075486   |   0.1 |  1.13
Modify  | 0.28531    | 0.41229    | 0.56826    |  13.5 |  6.26
Other   |            | 0.03299    |            |       |  0.50

Nlocal:    197.786 ave 229 max 165 min
Histogram: 4 2 3 1 2 1 3 8 3 1
Nghost:    691.179 ave 729 max 650 min
Histogram: 2 2 5 2 1 3 4 2 4 3
Neighs:    6987.57 ave 8449 max 5310 min
Histogram: 2 1 3 2 3 5 4 4 2 2
FullNghs:  0 ave 0 max 0 min
Histogram: 28 0 0 0 0 0 0 0 0 0

Total # of neighbors = 195652
Ave neighs/atom = 35.329
Neighbor list builds = 557
Dangerous builds = 0
WARNING: Shell command 'mkdir' failed with error 'File exists' (../input.cpp:1126)
Initial Length, L0: 101.320019498613
Setting up Verlet run ...
  Unit style  : metal
  Current step: 0
  Time step   : 0.001
Memory usage per processor = 6.78838 Mbytes
Step Temp TotEng Press Pxx Pyy Pzz Lx Ly Lz 
       0    99.763665   -8046.2456   -59.263387   -24.369354   -64.554331   -88.866475     99.92549    99.724548    101.32002 
     100    98.533701   -8046.2443   -27.913116    2.9093853   -7.6901231   -78.958609     99.92549    99.724548    101.32103 
     200    98.838151   -8046.2433    9.5976855    49.677611    37.646911   -58.531465     99.92549    99.724548    101.32205 
     300    97.739423   -8046.2423    21.730458    75.625899    36.476709   -46.911236     99.92549    99.724548    101.32306 
     400    97.221404   -8046.2405     6.587334    43.318604    35.371613   -58.928216     99.92549    99.724548    101.32407 
     500    98.315513   -8046.2391    4.2046887    58.081942     24.93572   -70.403596     99.92549    99.724548    101.32509 
     600    99.407904   -8046.2372   -24.623911    21.683824   -12.872437    -82.68312     99.92549    99.724548     101.3261 
     700    98.626783   -8046.2345   -43.252821    3.8163724   -44.234748   -89.340086     99.92549    99.724548    101.32711 
     800     99.26501   -8046.2323   -63.512762   -51.387758   -55.100109   -84.050419     99.92549    99.724548    101.32813 
     900     100.8004   -8046.2305   -66.158303   -60.464846   -47.585311   -90.424752     99.92549    99.724548    101.32914 
    1000    99.101659   -8046.2282   -35.789334   -24.688871   -29.185462   -53.493669     99.92549    99.724548    101.33015 
    1100     97.20893   -8046.2255   -13.771141   -13.517598    12.601328   -40.397152     99.92549    99.724548    101.33116 
    1200    98.750789   -8046.2237   -17.446372   -34.290562    38.299864   -56.348417     99.92549    99.724548    101.33218 
    1300    98.766195    -8046.221    12.616777    27.057838    55.679396   -44.886901     99.92549    99.724548    101.33319 
    1400    99.785917   -8046.2182    42.537324    47.749734    98.099131   -18.236894     99.92549    99.724548     101.3342 
    1500     100.4066   -8046.2153    20.601705    19.601354    70.649031    -28.44527     99.92549    99.724548    101.33522 
    1600    98.806439    -8046.212     -34.7557    1.8986467   -20.498216    -85.66753     99.92549    99.724548    101.33623 
    1700    99.637946    -8046.209   -54.232085   -33.686787   -35.456877   -93.552592     99.92549    99.724548    101.33724 
    1800    99.694927   -8046.2058   -68.082507   -53.068232   -47.681432   -103.49786     99.92549    99.724548    101.33826 
    1900    98.460139    -8046.202   -53.964877    10.988374   -78.172155    -94.71085     99.92549    99.724548    101.33927 
    2000    98.635175   -8046.1984   -68.501501   -9.4463102   -62.001981   -134.05621     99.92549    99.724548    101.34028 
    2100    97.602796   -8046.1942   -33.109115    31.305407   -29.489219   -101.14353     99.92549    99.724548     101.3413 
    2200      98.9538   -8046.1907   -10.355023    55.591919   -3.9282369   -82.728752     99.92549    99.724548    101.34231 
    2300    98.457074   -8046.1862    1.5976199    39.947501    56.166495   -91.321136     99.92549    99.724548    101.34332 
    2400    98.029431   -8046.1817    -6.216912    37.841594    25.726523   -82.218853     99.92549    99.724548    101.34434 
    2500    99.106927   -8046.1776   -16.824656     6.263999    24.125624   -80.863591     99.92549    99.724548    101.34535 
    2600    98.634221   -8046.1732   -20.162213   -26.611328    34.193541   -68.068853     99.92549    99.724548    101.34636 
    2700    98.808262   -8046.1688   -33.302541   -25.007318  -0.58804946   -74.312256     99.92549    99.724548    101.34738 
    2800    99.621132   -8046.1643   -60.660684   -59.450404   -15.234635   -107.29701     99.92549    99.724548    101.34839 
    2900    98.940868   -8046.1593   -57.547874   -45.727674   -36.902213   -90.013734     99.92549    99.724548     101.3494 
    3000    99.382889   -8046.1543   -26.895369   -25.088175    19.243651   -74.841584     99.92549    99.724548    101.35042 
    3100     99.30227    -8046.149   -10.946549    11.755625    10.257794   -54.853065     99.92549    99.724548    101.35143 
    3200     98.60557   -8046.1438    -14.18863    11.186561    5.6826072   -59.435057     99.92549    99.724548    101.35244 
    3300    99.286056   -8046.1386   -20.832285    17.474012    17.684226   -97.655093     99.92549    99.724548    101.35346 
    3400     98.81095   -8046.1326    2.5272108    69.623661    41.596079   -103.63811     99.92549    99.724548    101.35447 
    3500    99.406128   -8046.1271   -14.033571    39.329518    19.011484   -100.44171     99.92549    99.724548    101.35548 
    3600    96.970519   -8046.1207   -67.697942   -21.251208   -52.816515    -129.0261     99.92549    99.724548    101.35649 
    3700    97.761236   -8046.1146   -63.713344    -15.31872   -43.218462   -132.60285     99.92549    99.724548    101.35751 
    3800    98.850944   -8046.1086   -65.196134   -17.865451     -44.3902   -133.33275     99.92549    99.724548    101.35852 
    3900    97.166798   -8046.1012   -49.592963    13.292304   -34.291444   -127.77975     99.92549    99.724548    101.35953 
    4000    99.529253   -8046.0949   -57.848384   -13.486209   -30.980386   -129.07855     99.92549    99.724548    101.36055 
    4100    99.377821   -8046.0879   -57.978445   -23.788633    -22.95971   -127.18699     99.92549    99.724548    101.36156 
    4200    100.68737   -8046.0811    6.5092631    41.323717    54.296927   -76.092855     99.92549    99.724548    101.36257 
    4300    101.03673   -8046.0746     10.64467    43.902575    65.810079   -77.778642     99.92549    99.724548    101.36359 
    4400    100.04836   -8046.0674   -31.580273   -17.069472    21.056649   -98.727996     99.92549    99.724548     101.3646 
    4500     99.86812   -8046.0607   -26.671661   -8.0882197    23.713581   -95.640344     99.92549    99.724548    101.36561 
    4600    97.918589   -8046.0528   -20.967774   -18.963801    33.856167   -77.795689     99.92549    99.724548    101.36663 
    4700    98.364826   -8046.0458   -24.359617   -14.412523    22.189033   -80.855363     99.92549    99.724548    101.36764 
    4800    99.331058   -8046.0382   -45.806719   -28.470447   -17.713637   -91.236072     99.92549    99.724548    101.36865 
    4900    101.01819   -8046.0307   -66.355769   -41.283165   -40.406055   -117.37809     99.92549    99.724548    101.36967 
    5000    99.842272   -8046.0222   -28.437538    6.0925741    7.4106701   -98.815857     99.92549    99.724548    101.37068 
    5100    99.399854   -8046.0139   -40.294686    12.835371   -16.485767   -117.23366     99.92549    99.724548    101.37169 
    5200    98.608578   -8046.0057   -41.079104    28.453255   -31.462384   -120.22818     99.92549    99.724548    101.37271 
    5300    99.699057   -8045.9975   -36.430554    32.734821   -23.860033   -118.16645     99.92549    99.724548    101.37372 
    5400    98.474994   -8045.9885   -16.087933    81.360292   -7.3341825   -122.28991     99.92549    99.724548    101.37473 
    5500    97.484856   -8045.9795     -30.8236    47.620421   -9.0063061   -131.08492     99.92549    99.724548    101.37575 
    5600    98.048338   -8045.9705    -34.90587   -12.923811    20.805595   -112.59939     99.92549    99.724548    101.37676 
    5700     100.4679    -8045.962   -70.787646   -28.484681   -38.891989   -144.98627     99.92549    99.724548    101.37777 
    5800    99.138358   -8045.9519   -37.659862    -19.96845    27.290936   -120.30207     99.92549    99.724548    101.37879 
    5900    99.272201   -8045.9423   -50.295905   -60.797674    26.239912   -116.32995     99.92549    99.724548     101.3798 
    6000    99.016855   -8045.9322   -52.918369   -55.778576    14.520396   -117.49693     99.92549    99.724548    101.38081 
    6100    101.31618    -8045.923   -46.625302   -48.332413    20.264277   -111.80777     99.92549    99.724548    101.38182 
    6200    98.857428   -8045.9122   -13.177171    11.091593    36.355385   -86.978492     99.92549    99.724548    101.38284 
    6300    99.414198   -8045.9027   -35.083109    7.6625717   -15.615395   -97.296503     99.92549    99.724548    101.38385 
    6400    100.15943    -8045.893   -8.0304681    53.048339    15.446035   -92.585778     99.92549    99.724548    101.38486 
    6500    97.220349    -8045.882   -12.846373    73.437058   -30.976124   -81.000054     99.92549    99.724548    101.38588 
    6600    99.003029    -8045.872   -21.174684    27.513422   -9.0245848   -82.012888     99.92549    99.724548    101.38689 
    6700    98.106673   -8045.8611   -36.869581   -10.472854   -17.296216   -82.839674     99.92549    99.724548     101.3879 
    6800    99.148732     -8045.85   -41.790073   -2.6467499    4.5154718   -127.23894     99.92549    99.724548    101.38892 
    6900    98.629749   -8045.8393   -61.585916   -15.258444   -29.366598   -140.13271     99.92549    99.724548    101.38993 
    7000    97.371238   -8045.8272   -54.993551   -15.920365   -8.2603036   -140.79998     99.92549    99.724548    101.39094 
    7100    99.019308   -8045.8163   -56.384821   -23.079584   -8.2695921   -137.80529     99.92549    99.724548    101.39196 
    7200    100.11737   -8045.8051   -43.974747    9.0098441   -7.6642574   -133.26983     99.92549    99.724548    101.39297 
    7300    98.551495   -8045.7928   -47.844006    25.239124   -23.188729   -145.58241     99.92549    99.724548    101.39398 
    7400    98.771975   -8045.7807   -31.893452    18.873103    18.242499   -132.79596     99.92549    99.724548      101.395 
    7500    100.01501   -8045.7686   -34.172549  0.025300531     23.47009   -126.01304     99.92549    99.724548    101.39601 
    7600    98.883755    -8045.756   -19.101918     6.071484    61.552602   -124.92984     99.92549    99.724548    101.39702 
    7700    99.673215   -8045.7437   -27.486232   -11.993685    25.715006   -96.180016     99.92549    99.724548    101.39804 
    7800    98.956784    -8045.731   -40.175558   -27.543618     16.55204    -109.5351     99.92549    99.724548    101.39905 
    7900    99.895856   -8045.7183   -43.743103   -34.119811    30.706102    -127.8156     99.92549    99.724548    101.40006 
    8000     98.40156   -8045.7053   -62.642581   -20.215464   -37.764879    -129.9474     99.92549    99.724548    101.40108 
    8100    98.901512   -8045.6919   -68.151079   -24.761083   -36.533848   -143.15831     99.92549    99.724548    101.40209 
    8200    97.677368   -8045.6783   -60.588107   -28.358152   -31.135601   -122.27057     99.92549    99.724548     101.4031 
    8300    99.546418   -8045.6653   -48.706261    6.7330486   -25.143571   -127.70826     99.92549    99.724548    101.40412 
    8400    100.37176   -8045.6514   -28.269602    21.387739    5.3681509   -111.56469     99.92549    99.724548    101.40513 
    8500    99.616204   -8045.6372   -12.419387    73.827052     1.797827   -112.88304     99.92549    99.724548    101.40614 
    8600    99.809811    -8045.623   -32.032327    43.793049    -13.74692   -126.14311     99.92549    99.724548    101.40715 
    8700    100.38852   -8045.6087   -13.167056    41.551892    28.871124   -109.92418     99.92549    99.724548    101.40817 
    8800    98.858667   -8045.5944   -36.312776    8.4076981    7.4843984   -124.83043     99.92549    99.724548    101.40918 
    8900    98.823844   -8045.5798   -65.965366   -40.763047   -6.6687026   -150.46435     99.92549    99.724548    101.41019 
    9000    100.25429   -8045.5656   -76.365358   -64.897699   -2.3261891   -161.87219     99.92549    99.724548    101.41121 
    9100    98.105733   -8045.5498    -72.34507    -41.87477   -12.134686   -163.02575     99.92549    99.724548    101.41222 
    9200    99.529463   -8045.5347   -74.694881    -43.46725   -12.385432   -168.23196     99.92549    99.724548    101.41323 
    9300    98.197376   -8045.5186   -41.585774     12.95102    2.7979452   -140.50629     99.92549    99.724548    101.41425 
    9400    98.302888   -8045.5026   -35.483551    26.781294    7.8358938   -141.06784     99.92549    99.724548    101.41526 
    9500    99.354232   -8045.4875   -23.371691    31.803629    16.260715   -118.17942     99.92549    99.724548    101.41627 
    9600    100.79716   -8045.4718   0.26476078    50.090038     47.11141   -96.407165     99.92549    99.724548    101.41729 
    9700    98.891914   -8045.4555   -44.655781    13.523735   -12.265207   -135.22587     99.92549    99.724548     101.4183 
    9800    98.581587   -8045.4397   -32.366273    1.2807954    14.126426   -112.50604     99.92549    99.724548    101.41931 
    9900    98.921437   -8045.4234   -48.883937   -27.320339   -6.9990353   -112.33244     99.92549    99.724548    101.42033 
   10000    97.889906   -8045.4066   -63.175965   -27.369579   -22.897047   -139.26127     99.92549    99.724548    101.42134 
   10100    98.826442   -8045.3903   -75.286345   -35.334523   -42.742602   -147.78191     99.92549    99.724548    101.42235 
   10200    99.762766   -8045.3731   -80.051389   -36.528553   -54.562384   -149.06323     99.92549    99.724548    101.42337 
   10300    99.904056   -8045.3557   -37.109124     54.78151   -4.4317178   -161.67716     99.92549    99.724548    101.42438 
   10400    98.297794   -8045.3381   -22.260023    37.616069    18.430445   -122.82658     99.92549    99.724548    101.42539 
   10500    99.763014   -8045.3211   -23.879718    46.279631    22.805521   -140.72431     99.92549    99.724548    101.42641 
   10600    99.470141   -8045.3039   -2.4426263    53.862305    65.808419    -126.9986     99.92549    99.724548    101.42742 
   10700     99.60257   -8045.2863   -38.267662   -2.6257852    56.818291   -168.99549     99.92549    99.724548    101.42843 
   10800    98.378395   -8045.2677   -79.849271    -71.19394    2.7924827   -171.14636     99.92549    99.724548    101.42945 
   10900    98.944423   -8045.2497   -86.033433   -55.650919   -45.265415   -157.18396     99.92549    99.724548    101.43046 
   11000    98.676795    -8045.231   -88.494764   -62.383278   -36.401405   -166.69961     99.92549    99.724548    101.43147 
   11100    100.17511   -8045.2125   -53.796219   -2.6685654   -5.0595813   -153.66051     99.92549    99.724548    101.43248 
   11200    99.469822   -8045.1936   -68.602446    2.2327552   -46.247573   -161.79252     99.92549    99.724548     101.4335 
   11300    98.717137   -8045.1746   -34.597279    18.787057    7.3016793   -129.88057     99.92549    99.724548    101.43451 
   11400    100.01148   -8045.1563   -9.5583558    70.645391    19.101848   -118.42231     99.92549    99.724548    101.43552 
   11500    99.361277   -8045.1371     2.333415    62.255371    55.361441   -110.61657     99.92549    99.724548    101.43654 
   11600    99.693812   -8045.1187    -30.36047     11.25715    28.127284   -130.46584     99.92549    99.724548    101.43755 
   11700    99.721754   -8045.0991   -59.304198   -3.0152478    -13.17196   -161.72539     99.92549    99.724548    101.43856 
   11800     99.15289   -8045.0791   -86.099174   -46.201531   -35.479756   -176.61623     99.92549    99.724548    101.43958 
   11900    101.36288   -8045.0599   -82.018826   -39.366393   -29.653044   -177.03704     99.92549    99.724548    101.44059 
   12000    99.563106   -8045.0391    -83.18717   -32.040257   -42.004605   -175.51665     99.92549    99.724548     101.4416 
   12100    100.99958   -8045.0194   -85.323616   -26.263497   -49.416605   -180.29075     99.92549    99.724548    101.44262 
   12200    101.48798   -8044.9997    -49.56831     10.28892    17.047444   -176.04129     99.92549    99.724548    101.44363 
   12300    98.536239    -8044.979   -38.232863    19.500957    45.862954    -180.0625     99.92549    99.724548    101.44464 
   12400     96.92297   -8044.9583   -14.255535    41.508345    50.837331   -135.11228     99.92549    99.724548    101.44566 
   12500    99.021178   -8044.9385   -33.736471    56.409594    30.373242   -187.99225     99.92549    99.724548    101.44667 
   12600    99.829609   -8044.9179   -39.020522    38.269031    9.3180986    -164.6487     99.92549    99.724548    101.44768 
   12700    100.21187    -8044.897   -63.686891   -15.594437     8.258958   -183.72519     99.92549    99.724548     101.4487 
   12800    99.505925   -8044.8757   -81.822363   -21.424514   -38.480389   -185.56219     99.92549    99.724548    101.44971 
   12900    101.04714   -8044.8549   -86.988877   -52.714048   -34.104679    -174.1479     99.92549    99.724548    101.45072 
   13000    99.280571   -8044.8337   -88.854072   -64.465629   -31.870771   -170.22582     99.92549    99.724548    101.45174 
   13100    99.266538   -8044.8126   -54.997854   -18.513955    3.3721669   -149.85178     99.92549    99.724548    101.45275 
   13200    99.575744   -8044.7917   -40.447729   -7.9596078    29.827051   -143.21063     99.92549    99.724548    101.45376 
   13300    99.926228    -8044.771   -43.071967    9.9295441    11.469898   -150.61534     99.92549    99.724548    101.45478 
   13400    98.732885   -8044.7492   -17.157196    58.850245     30.93273   -141.25456     99.92549    99.724548    101.45579 
   13500    100.68036   -8044.7284   -20.590758    43.036279    33.870725   -138.67928     99.92549    99.724548     101.4568 
   13600     101.1784   -8044.7067    -40.88899    45.747858  -0.63929936   -167.77553     99.92549    99.724548    101.45781 
   13700    101.45239   -8044.6851   -57.271674     8.481976   0.15892099   -180.45592     99.92549    99.724548    101.45883 
   13800    102.08836   -8044.6639   -77.584341   -20.960381   -16.462291   -195.33035     99.92549    99.724548    101.45984 
   13900    99.900958   -8044.6415   -112.30831   -66.099183   -52.629449   -218.19629     99.92549    99.724548    101.46085 
   14000    98.063628   -8044.6194   -85.815282   -57.770532   -8.6624091   -191.01291     99.92549    99.724548    101.46187 
   14100    101.23999   -8044.5988   -73.338773    -2.122365   -24.585592   -193.30836     99.92549    99.724548    101.46288 
   14200    99.537484   -8044.5763    -57.29028    27.151732   0.20551773   -199.22809     99.92549    99.724548    101.46389 
   14300    100.17093   -8044.5545   -54.055606    14.399244  -0.54927936   -176.01678     99.92549    99.724548    101.46491 
   14400    100.82054    -8044.533   -52.045379    35.346225    -8.619379   -182.86298     99.92549    99.724548    101.46592 
   14500    101.05037   -8044.5109   -24.192851     42.83821    36.114864   -151.53163     99.92549    99.724548    101.46693 
   14600    99.992662   -8044.4885   -38.240284    20.905966    25.162309   -160.78913     99.92549    99.724548    101.46795 
   14700    100.70507   -8044.4674   -64.898379   -10.333966    6.2359441   -190.59711     99.92549    99.724548    101.46896 
   14800    101.01876   -8044.4458   -54.990594   -1.1159661    6.9608373   -170.81665     99.92549    99.724548    101.46997 
   14900    98.416536   -8044.4235   -65.826671   -34.429395    -3.427065   -159.62355     99.92549    99.724548    101.47099 
   15000    100.69285   -8044.4025    -86.97511   -35.674245   -44.582533   -180.66855     99.92549    99.724548      101.472 
   15100    99.984743   -8044.3808   -81.699235   -34.969575   -30.574246   -179.55389     99.92549    99.724548    101.47301 
   15200    98.954845   -8044.3591   -63.890516    -19.79858   -10.197875   -161.67509     99.92549    99.724548    101.47403 
   15300    100.18866   -8044.3375   -49.125756    12.003609    12.807018    -172.1879     99.92549    99.724548    101.47504 
   15400    100.09998   -8044.3161   -44.351744    12.151133    14.251724   -159.45809     99.92549    99.724548    101.47605 
   15500    100.51187   -8044.2945   -35.628651    41.454709    28.700938    -177.0416     99.92549    99.724548    101.47707 
   15600    99.965435   -8044.2734   -33.821734    40.230889     36.63779   -178.33388     99.92549    99.724548    101.47808 
   15700    99.398088   -8044.2519    -41.77853    25.946072    35.198667   -186.48033     99.92549    99.724548    101.47909 
   15800    99.792161   -8044.2309   -82.597998   -21.078294  -0.92617094   -225.78953     99.92549    99.724548    101.48011 
   15900    100.28874   -8044.2094   -88.656309   -33.488821    -14.80056   -217.67955     99.92549    99.724548    101.48112 
   16000    100.07532   -8044.1877   -85.730408   -3.5772673   -39.135415   -214.47854     99.92549    99.724548    101.48213 
   16100    100.24887   -8044.1667   -121.09241   -55.246626   -69.234154   -238.79644     99.92549    99.724548    101.48314 
   16200    99.446546   -8044.1452   -85.920065   -16.496935   -45.103016   -196.16024     99.92549    99.724548    101.48416 
   16300    101.08044   -8044.1249   -64.810801    14.770372   -10.434884   -198.76789     99.92549    99.724548    101.48517 
   16400    101.10617   -8044.1039   -33.053631    15.169064    59.918524   -174.24848     99.92549    99.724548    101.48618 
   16500    99.131661   -8044.0826   -29.200156    32.979396    49.456896   -170.03676     99.92549    99.724548     101.4872 
   16600    99.669683    -8044.063   -28.312692    42.528773    39.493353    -166.9602     99.92549    99.724548    101.48821 
   16700      100.141   -8044.0431   -38.288957    13.504145     46.07007   -174.44109     99.92549    99.724548    101.48922 
   16800    100.34568    -8044.023   -56.785362   -6.8790414    2.0151594    -165.4922     99.92549    99.724548    101.49024 
   16900    100.54556   -8044.0028   -103.98512   -43.838692   -58.110414   -210.00624     99.92549    99.724548    101.49125 
   17000     100.9653   -8043.9826   -97.567081   -31.952698   -41.531582   -219.21696     99.92549    99.724548    101.49226 
   17100     99.66661   -8043.9629   -89.397769    -39.84407   -26.191317   -202.15792     99.92549    99.724548    101.49328 
   17200    100.24325    -8043.943   -78.880928   -8.0100672   -10.862025   -217.77069     99.92549    99.724548    101.49429 
   17300    100.00533   -8043.9237   -90.797082   -40.947106   -16.786628   -214.65751     99.92549    99.724548     101.4953 
   17400    100.61582   -8043.9047   -54.511851    20.338777    24.876587   -208.75092     99.92549    99.724548    101.49632 
   17500    101.07701   -8043.8856   -3.6337001    109.63404    64.649744   -185.18488     99.92549    99.724548    101.49733 
   17600    101.82606    -8043.867   -37.990433    33.512533    55.181969    -202.6658     99.92549    99.724548    101.49834 
   17700    100.78387    -8043.848   -75.516872     13.29489   -6.8254616   -233.02004     99.92549    99.724548    101.49936 
   17800    101.04216   -8043.8291   -84.480266   -25.040003   -10.001111   -218.39969     99.92549    99.724548    101.50037 
   17900    100.68089   -8043.8102   -84.174787   -24.852989   -10.343272    -217.3281     99.92549    99.724548    101.50138 
   18000    100.96675   -8043.7921   -101.42956   -25.793084   -46.010017   -232.48558     99.92549    99.724548     101.5024 
   18100    100.34131   -8043.7735   -122.01759   -59.345041   -73.179563   -233.52817     99.92549    99.724548    101.50341 
   18200    100.03024   -8043.7558   -88.438531   -41.533476    -11.98247   -211.79965     99.92549    99.724548    101.50442 
   18300    101.43558   -8043.7389   -40.952256    22.315079    32.341656    -177.5135     99.92549    99.724548    101.50544 
   18400    100.12265    -8043.721   -32.062259    36.230541    63.190588   -195.60791     99.92549    99.724548    101.50645 
   18500    100.06621   -8043.7039   -39.292391    6.9998031    54.506072   -179.38305     99.92549    99.724548    101.50746 
   18600    100.45142   -8043.6877   -61.918501    1.2488527    2.1182744   -189.12263     99.92549    99.724548    101.50847 
   18700    100.72634   -8043.6707   -38.679821    65.913007    18.443195   -200.39566     99.92549    99.724548    101.50949 
   18800     102.5428   -8043.6549   -72.504059   -11.413982    5.1070107   -211.20521     99.92549    99.724548     101.5105 
   18900    100.99546   -8043.6378   -104.51476   -34.327477   -59.709931   -219.50686     99.92549    99.724548    101.51151 
   19000    100.56291   -8043.6214   -106.39239   -19.158942   -49.039673   -250.97857     99.92549    99.724548    101.51253 
   19100    101.12969    -8043.606   -74.201824    3.1039322   -10.989922   -214.71948     99.92549    99.724548    101.51354 
   19200    101.08553   -8043.5901   -80.541668    15.999748   -29.537705   -228.08705     99.92549    99.724548    101.51455 
   19300    100.24453   -8043.5746   -95.131154   -22.847849   -24.758002   -237.78761     99.92549    99.724548    101.51557 
   19400    99.278186   -8043.5595   -57.892886    1.7798845     34.00198   -209.46052     99.92549    99.724548    101.51658 
   19500    100.42594   -8043.5448   -35.842117    44.712181    50.429332   -202.66786     99.92549    99.724548    101.51759 
   19600    100.22007   -8043.5301    -48.23745    7.0243578    56.014366   -207.75107     99.92549    99.724548    101.51861 
   19700    100.92261   -8043.5154   -66.707324   -8.7993494    25.836712   -217.15934     99.92549    99.724548    101.51962 
   19800    99.956564   -8043.5008   -85.625251   -15.388243   -21.294682   -220.19283     99.92549    99.724548    101.52063 
   19900    101.90532   -8043.4875   -73.947794   -23.127182    11.878255   -210.59445     99.92549    99.724548    101.52165 
   20000    100.93792   -8043.4736   -92.562565    -10.96534   -45.581315   -221.14104     99.92549    99.724548    101.52266 
   20100    101.03518   -8043.4602   -92.062497   -11.955022   -51.963722   -212.26875     99.92549    99.724548    101.52367 
   20200     99.87857   -8043.4465   -74.962027   -21.231432    6.6062118   -210.26086     99.92549    99.724548    101.52469 
   20300    101.10563   -8043.4343   -63.227991    23.450789   -13.481296   -199.65347     99.92549    99.724548     101.5257 
   20400    100.81125   -8043.4211   -73.442275    1.9157936   -1.3793872   -220.86323     99.92549    99.724548    101.52671 
   20500     100.2156   -8043.4083   -52.603746    5.9983224    43.738022   -207.54758     99.92549    99.724548    101.52773 
   20600    101.80982   -8043.3969   -39.371082    46.290214    32.938335   -197.34179     99.92549    99.724548    101.52874 
   20700    100.43825   -8043.3842   -58.473099    13.503417     33.00716   -221.92987     99.92549    99.724548    101.52975 
   20800    101.12216   -8043.3722   -88.442972   -10.137228   -21.467675   -233.72401     99.92549    99.724548    101.53077 
   20900    101.47241   -8043.3611   -88.789742   -9.1071367   -21.392189    -235.8699     99.92549    99.724548    101.53178 
   21000    99.956807   -8043.3494   -113.97564   -38.923509   -38.346597   -264.65683     99.92549    99.724548    101.53279 
   21100    100.23867   -8043.3379   -103.07627   -31.777202   -33.108838   -244.34278     99.92549    99.724548     101.5338 
   21200    100.12206   -8043.3267   -98.941984   -23.589875   -25.590651   -247.64543     99.92549    99.724548    101.53482 
   21300    100.05682   -8043.3158    -70.26685    12.961019    9.5891641   -233.35073     99.92549    99.724548    101.53583 
   21400    101.35638   -8043.3054   -38.801314    42.658401     50.71498   -209.77732     99.92549    99.724548    101.53684 
   21500      101.567    -8043.295   -42.659412    36.502367    42.702681   -207.18328     99.92549    99.724548    101.53786 
   21600    101.17795   -8043.2853   -60.870043    11.839095    25.428532   -219.87776     99.92549    99.724548    101.53887 
   21700    100.21045   -8043.2753   -67.419784    4.5025707    7.4927271   -214.25465     99.92549    99.724548    101.53988 
   21800     100.5436   -8043.2659   -72.130165   -2.0046642    5.5035299   -219.88936     99.92549    99.724548     101.5409 
   21900    99.742667   -8043.2567   -107.64175   -54.192236   -38.732164   -230.00086     99.92549    99.724548    101.54191 
   22000    100.45696   -8043.2473   -112.32481   -27.452855   -78.833224   -230.68834     99.92549    99.724548    101.54292 
   22100    100.77904   -8043.2386    -100.1302   -11.977022   -45.293359   -243.12021     99.92549    99.724548    101.54394 
   22200    100.92106     -8043.23   -69.722598    7.0625193  -0.62601378    -215.6043     99.92549    99.724548    101.54495 
   22300     101.1013   -8043.2212   -50.929573    54.395787    24.476049   -231.66056     99.92549    99.724548    101.54596 
   22400    101.11238    -8043.213   -50.373553    31.284043     32.35854   -214.76324     99.92549    99.724548    101.54698 
   22500     99.42014   -8043.2047   -37.344233    56.092962    65.390864   -233.51652     99.92549    99.724548    101.54799 
   22600    98.573815   -8043.1966   -56.243668    15.417864    38.305505   -222.45437     99.92549    99.724548      101.549 
   22700    99.569457   -8043.1895   -89.218825   -24.252823    29.177012   -272.58066     99.92549    99.724548    101.55002 
   22800    100.62424   -8043.1821   -129.33049    -66.42039   -42.443742   -279.12733     99.92549    99.724548    101.55103 
   22900    100.01055   -8043.1742   -117.83244    -60.82307   -25.679065   -266.99519     99.92549    99.724548    101.55204 
   23000    101.06508    -8043.167   -123.29884   -52.909485   -36.383344    -280.6037     99.92549    99.724548    101.55306 
   23100    100.71091   -8043.1595   -121.21555    -34.12986   -58.861549   -270.65524     99.92549    99.724548    101.55407 
   23200     101.4276   -8043.1528   -74.234642    27.065881    -11.03178   -238.73803     99.92549    99.724548    101.55508 
   23300    101.20676   -8043.1462   -38.453195    39.611562    60.814582   -215.78573     99.92549    99.724548     101.5561 
   23400    100.95226   -8043.1402   -25.628504    83.562613    43.415678    -203.8638     99.92549    99.724548    101.55711 
   23500    99.192011   -8043.1337   -35.230887    63.536052    30.665293   -199.89401     99.92549    99.724548    101.55812 
   23600     101.6262   -8043.1286   -66.837995    25.745914    16.547089   -242.80699     99.92549    99.724548    101.55913 
   23700    100.70075   -8043.1226   -76.615747    3.7422808   -6.8312524   -226.75827     99.92549    99.724548    101.56015 
   23800    100.27527   -8043.1167   -103.29783   -41.312878   -20.582228   -247.99839     99.92549    99.724548    101.56116 
   23900     101.1786   -8043.1111   -127.84838   -61.890705   -38.363626   -283.29082     99.92549    99.724548    101.56217 
   24000    102.29462   -8043.1055   -116.17064   -55.094419   -21.816093    -271.6014     99.92549    99.724548    101.56319 
   24100    101.66285   -8043.1003   -114.28366    -35.15263   -30.316565    -277.3818     99.92549    99.724548     101.5642 
   24200    101.30307    -8043.095   -73.390932    14.336159    11.137585   -245.64654     99.92549    99.724548    101.56521 
   24300    100.67315   -8043.0903   -57.835645    36.469945    29.662677   -239.63956     99.92549    99.724548    101.56623 
   24400    101.12598   -8043.0859   -55.476672    57.623565     29.59879   -253.65237     99.92549    99.724548    101.56724 
   24500    99.092534   -8043.0808   -46.478042    69.785043    30.347943   -239.56711     99.92549    99.724548    101.56825 
   24600    100.85589    -8043.077   -53.967985    41.846839    43.979684   -247.73048     99.92549    99.724548    101.56927 
   24700    99.170502    -8043.072   -100.78423 -0.099600013   -29.952162   -272.30092     99.92549    99.724548    101.57028 
   24800    101.52526   -8043.0681   -137.32721   -78.760354    -46.36697   -286.85431     99.92549    99.724548    101.57129 
   24900    102.95923   -8043.0645   -125.01095   -66.501239    -41.42878   -267.10284     99.92549    99.724548    101.57231 
   25000    101.93354     -8043.06   -114.00975   -30.537988   -45.324358   -266.16692     99.92549    99.724548    101.57332 
   25100    101.06569   -8043.0565   -92.501975   -13.461775    1.5423439   -265.58649     99.92549    99.724548    101.57433 
   25200    100.87875   -8043.0529   -85.760695   0.45013387   -5.4412715   -252.29095     99.92549    99.724548    101.57535 
   25300    99.981277   -8043.0494    -40.01486    39.891187    61.432111   -221.36788     99.92549    99.724548    101.57636 
   25400    99.975241   -8043.0462   -34.951182    63.542364     73.37553   -241.77144     99.92549    99.724548    101.57737 
   25500    101.79372   -8043.0432   -53.746677    36.505382    38.388497   -236.13391     99.92549    99.724548    101.57839 
   25600    100.90559   -8043.0399   -80.806395   -8.6711099    15.004312   -248.75239     99.92549    99.724548     101.5794 
   25700    100.92137   -8043.0369   -99.623349   -23.279282   -15.054843   -260.53592     99.92549    99.724548    101.58041 
   25800    100.66583   -8043.0342   -109.17154   -18.416669   -29.263999   -279.83396     99.92549    99.724548    101.58143 
   25900    102.51104   -8043.0317   -112.17114   -27.266956   -30.644837   -278.60163     99.92549    99.724548    101.58244 
   26000     101.1286    -8043.029   -149.32965   -65.120651   -83.117682   -299.75062     99.92549    99.724548    101.58345 
   26100     98.95254   -8043.0258   -111.58736   -13.873302   -24.634781   -296.25401     99.92549    99.724548    101.58446 
   26200    100.60673   -8043.0238   -71.256528     41.49025    14.175766    -269.4356     99.92549    99.724548    101.58548 
   26300     101.3175   -8043.0219   -66.139243    55.528819    24.792923   -278.73947     99.92549    99.724548    101.58649 
   26400    101.24743   -8043.0194   -67.871888    28.196118    22.775174   -254.58696     99.92549    99.724548     101.5875 
   26500    99.366044   -8043.0165   -66.236297    39.087316    32.185092    -269.9813     99.92549    99.724548    101.58852 
   26600    101.27675   -8043.0154   -66.703062    42.563555    17.827855   -260.50059     99.92549    99.724548    101.58953 
   26700    100.10666   -8043.0133   -87.491332    2.9163416   -5.4205196   -259.96982     99.92549    99.724548    101.59054 
   26800    100.59232   -8043.0122   -141.67947   -80.912111   -44.511362   -299.61494     99.92549    99.724548    101.59156 
   26900    99.260015   -8043.0098   -109.05758   -33.104909   -31.805205   -262.26262     99.92549    99.724548    101.59257 
   27000    101.74429   -8043.0092   -113.25328   -25.283361   -25.421194   -289.05529     99.92549    99.724548    101.59358 
   27100    101.06052   -8043.0074    -98.12117   -14.206387   -10.360938   -269.79618     99.92549    99.724548     101.5946 
   27200    100.93971   -8043.0061   -93.675099   -23.898877    3.9994019   -261.12582     99.92549    99.724548    101.59561 
   27300    100.52954   -8043.0044      -67.914    16.616406    59.391508   -279.74991     99.92549    99.724548    101.59662 
   27400    100.49729   -8043.0036    -51.31844    47.555371    54.970111    -256.4808     99.92549    99.724548    101.59764 
   27500    100.04507   -8043.0023   -64.997118    33.644872    40.081151   -268.71738     99.92549    99.724548    101.59865 
   27600    99.450911   -8043.0011   -84.970779   -5.1845215    33.130756   -282.85857     99.92549    99.724548    101.59966 
   27700    100.54081   -8043.0008   -97.155292   -6.8978249    1.3286786   -285.89673     99.92549    99.724548    101.60068 
   27800    99.904569   -8042.9999   -116.30925   -21.779605    -32.92307   -294.22507     99.92549    99.724548    101.60169 
   27900    100.32642   -8042.9987   -139.80635   -34.268986   -58.374324   -326.77573     99.92549    99.724548     101.6027 
   28000    100.97983   -8042.9979   -133.04191   -13.528537   -73.248776    -312.3484     99.92549    99.724548    101.60372 
   28100    100.86568    -8042.997   -114.54671    1.9730695   -43.341756   -302.27144     99.92549    99.724548    101.60473 
   28200    101.32976   -8042.9964   -80.348614    4.7905744    26.489007   -272.32542     99.92549    99.724548    101.60574 
   28300    100.83285   -8042.9959   -75.452478    45.485566   -7.2884641   -264.55454     99.92549    99.724548    101.60676 
   28400    100.97678   -8042.9956   -70.321132    32.989234    36.622649   -280.57528     99.92549    99.724548    101.60777 
   28500    101.16221   -8042.9956   -61.501538    18.918148    64.798062   -268.22082     99.92549    99.724548    101.60878 
   28600    99.817392   -8042.9952   -54.253258    26.454679    51.169038   -240.38349     99.92549    99.724548    101.60979 
   28700    100.38072   -8042.9953   -100.57721   -12.809847     4.833059   -293.75485     99.92549    99.724548    101.61081 
   28800    100.10934    -8042.995   -124.73639   -48.938485   -22.287881    -302.9828     99.92549    99.724548    101.61182 
   28900    100.15141   -8042.9949    -122.1851     -16.4879    -46.69276   -303.37464     99.92549    99.724548    101.61283 
   29000    101.11609   -8042.9952   -119.48429   -25.580882   -33.971397   -298.90059     99.92549    99.724548    101.61385 
   29100    101.43958   -8042.9951   -122.11723   -14.129877   -42.598328    -309.6235     99.92549    99.724548    101.61486 
   29200    101.94527   -8042.9952    -119.9874   -16.160934   -22.030652    -321.7706     99.92549    99.724548    101.61587 
   29300    101.24859    -8042.995    -58.24372    41.421511    63.611702   -279.76437     99.92549    99.724548    101.61689 
   29400    100.94146   -8042.9957    -59.21833    27.064851    73.436282   -278.15612     99.92549    99.724548     101.6179 
   29500    99.938376   -8042.9957   -99.057719     8.890573   -1.0785998   -304.98513     99.92549    99.724548    101.61891 
   29600    100.25554    -8042.996   -79.456848    27.939239    29.314912   -295.62469     99.92549    99.724548    101.61993 
   29700    100.95507   -8042.9966   -90.554999    26.479025    7.8931739   -306.03719     99.92549    99.724548    101.62094 
   29800    98.567158   -8042.9967   -126.38292   -27.635676   -49.821372    -301.6917     99.92549    99.724548    101.62195 
   29900    102.17613   -8042.9979   -147.93196   -45.559471   -66.758183   -331.47823     99.92549    99.724548    101.62297 
   30000    99.367874   -8042.9972   -124.05435   -12.323607   -56.789557   -303.04988     99.92549    99.724548    101.62398 
   30100    102.12528   -8042.9987   -94.117887    17.549048   -8.2273235   -291.67539     99.92549    99.724548    101.62499 
   30200    101.48344   -8042.9993   -85.037172   -12.480002    47.873546   -290.50506     99.92549    99.724548    101.62601 
   30300    101.73444   -8043.0004   -74.340377    28.959223    34.780008   -286.76036     99.92549    99.724548    101.62702 
   30400    101.50104   -8043.0015   -72.243724    23.087358    42.446762   -282.26529     99.92549    99.724548    101.62803 
   30500    99.182498   -8043.0021   -70.586333    15.860703    54.744733   -282.36444     99.92549    99.724548    101.62905 
   30600    98.922676   -8043.0028   -92.270108     15.77875   -7.2289269   -285.36015     99.92549    99.724548    101.63006 
   30700    100.89155   -8043.0044   -109.77435    -27.94728   -10.685121   -290.69065     99.92549    99.724548    101.63107 
   30800    101.93583   -8043.0055    -141.7363   -46.194269   -45.647563   -333.36707     99.92549    99.724548    101.63209 
   30900    102.02082   -8043.0065   -134.43958   -31.230127   -50.787751   -321.30085     99.92549    99.724548     101.6331 
   31000     101.1224   -8043.0075   -102.63803    2.2926897   -3.2978985   -306.90887     99.92549    99.724548    101.63411 
   31100    100.57488   -8043.0085    -111.6017    3.7844389   -7.4507838   -331.13876     99.92549    99.724548    101.63512 
   31200     101.0136   -8043.0098    -86.33772    16.668211    36.827646   -312.50902     99.92549    99.724548    101.63614 
   31300    100.26814   -8043.0108      -67.406     47.62296     39.75084    -289.5918     99.92549    99.724548    101.63715 
   31400    100.33594   -8043.0125   -82.158591    57.826359    3.7301913   -308.03232     99.92549    99.724548    101.63816 
   31500    101.01962   -8043.0137   -100.33472    15.120485   -1.1829834   -314.94168     99.92549    99.724548    101.63918 
   31600    100.04397   -8043.0151   -128.24082    -11.25721   -41.458628   -332.00663     99.92549    99.724548    101.64019 
   31700     101.9044   -8043.0165   -102.48708    16.648046   -7.4768952   -316.63239     99.92549    99.724548     101.6412 
   31800    101.02622   -8043.0172   -140.97433   -58.001406   -28.131254   -336.79033     99.92549    99.724548    101.64222 
   31900     100.5756   -8043.0191   -136.81238   -39.991198   -32.831705   -337.61424     99.92549    99.724548    101.64323 
   32000    99.784037   -8043.0205   -110.23372   -19.132809   -4.2035981   -307.36477     99.92549    99.724548    101.64424 
   32100    99.982789   -8043.0223   -104.34622    1.5262802    3.9148705    -318.4798     99.92549    99.724548    101.64526 
   32200     100.0258   -8043.0239    -74.36184    23.443892    42.690962   -289.22038     99.92549    99.724548    101.64627 
   32300    98.726505   -8043.0257   -76.833202    11.802991    38.655883   -280.95848     99.92549    99.724548    101.64728 
   32400    100.75286   -8043.0274   -81.726017    35.376497    19.506091   -300.06064     99.92549    99.724548     101.6483 
   32500    101.98182   -8043.0297   -92.712231    27.737607    16.548877   -322.42318     99.92549    99.724548    101.64931 
   32600     99.65839   -8043.0313   -137.31584   -44.480275   -32.950694   -334.51655     99.92549    99.724548    101.65032 
   32700    100.30166   -8043.0329   -137.25135   -24.508208   -37.160472   -350.08538     99.92549    99.724548    101.65134 
   32800    100.68562   -8043.0346   -124.88339   -21.976307    -16.79699   -335.87687     99.92549    99.724548    101.65235 
   32900    100.48692   -8043.0364     -116.062   -25.754019    5.2379631   -327.66995     99.92549    99.724548    101.65336 
   33000     100.8554   -8043.0384    -118.8793    15.825846   -24.002972   -348.46078     99.92549    99.724548    101.65438 
   33100    101.46738   -8043.0406   -102.20067    27.914253   -7.4266244   -327.08965     99.92549    99.724548    101.65539 
   33200    99.342097   -8043.0421   -85.360724    38.920426     32.24407   -327.24667     99.92549    99.724548     101.6564 
   33300    100.93954   -8043.0444   -89.729379    63.199308    -7.353103   -325.03434     99.92549    99.724548    101.65742 
   33400    101.40155   -8043.0464   -124.58518   -11.991786   -22.034624   -339.72914     99.92549    99.724548    101.65843 
   33500    101.16549   -8043.0485   -115.84189   -2.5960914   -4.5319255   -340.39765     99.92549    99.724548    101.65944 
   33600    101.51842   -8043.0504   -116.66121   -25.417564    5.8143655   -330.38042     99.92549    99.724548    101.66045 
   33700    101.59172   -8043.0529   -130.04246   -65.593745    18.383407   -342.91706     99.92549    99.724548    101.66147 
   33800    101.22467   -8043.0549   -128.55273   -46.897011    2.6303837   -341.39156     99.92549    99.724548    101.66248 
   33900     99.76644   -8043.0572   -97.556149    11.326538    17.110509   -321.10549     99.92549    99.724548    101.66349 
   34000    100.75688   -8043.0593   -103.67901   -4.1396746    23.388138   -330.28549     99.92549    99.724548    101.66451 
   34100    100.21939   -8043.0616   -90.904574     27.96292    14.315643   -314.99229     99.92549    99.724548    101.66552 
   34200    100.37462    -8043.064   -102.25472    39.758918   -12.191422   -334.33166     99.92549    99.724548    101.66653 
   34300    100.78024   -8043.0665   -106.90083    8.3917207    4.8101467   -333.90436     99.92549    99.724548    101.66755 
   34400    101.19631   -8043.0688   -104.47179    28.553575   -19.111733   -322.85722     99.92549    99.724548    101.66856 
   34500    101.97234   -8043.0719   -132.88763   -20.614447   -20.703299   -357.34513     99.92549    99.724548    101.66957 
   34600    98.797212   -8043.0734   -137.98742   -43.443473   -13.144687   -357.37409     99.92549    99.724548    101.67059 
   34700    100.16491   -8043.0758   -104.48948    24.616179   -1.4677174   -336.61691     99.92549    99.724548     101.6716 
   34800    100.72737   -8043.0791   -137.63127   -24.595976   -24.701067   -363.59675     99.92549    99.724548    101.67261 
   34900    100.30113   -8043.0812   -113.22704    13.813814     3.824495   -357.31944     99.92549    99.724548    101.67363 
   35000    99.136197   -8043.0833   -106.70875    18.922948   -4.4166095   -334.63257     99.92549    99.724548    101.67464 
   35100     101.3562   -8043.0867   -110.70405    17.707013   -4.2983945   -345.52077     99.92549    99.724548    101.67565 
   35200    101.16258    -8043.089   -113.45391    10.932279   -2.0425012   -349.25151     99.92549    99.724548    101.67667 
   35300    101.16211   -8043.0913   -91.638537    19.080686    40.174938   -334.17123     99.92549    99.724548    101.67768 
   35400    100.21825   -8043.0938   -104.57817  -0.12347372    20.772252    -334.3833     99.92549    99.724548    101.67869 
   35500     101.0096   -8043.0974   -131.67531   -52.599418   -3.1539871   -339.27253     99.92549    99.724548    101.67971 
   35600    99.671305   -8043.0996   -138.99162    -42.67701   -7.9217327   -366.37611     99.92549    99.724548    101.68072 
   35700    98.494404    -8043.102   -104.75035   -1.5003588    15.757888   -328.50857     99.92549    99.724548    101.68173 
   35800    100.43462   -8043.1054   -118.04984  -0.69073659   -18.879677    -334.5791     99.92549    99.724548    101.68275 
   35900    100.22555   -8043.1083   -118.21042   -3.5335948   -0.9261112   -350.17156     99.92549    99.724548    101.68376 
   36000     100.2723   -8043.1112   -125.72874    7.1792927   -27.345657   -357.01985     99.92549    99.724548    101.68477 
   36100    99.051256   -8043.1135     -113.919    17.506966   -8.4751154   -350.78886     99.92549    99.724548    101.68578 
   36200    102.01593    -8043.117    -94.73587    49.304893   -1.7656422   -331.74686     99.92549    99.724548     101.6868 
   36300    100.62173   -8043.1199    -96.66528     50.00116    2.6012812   -342.59828     99.92549    99.724548    101.68781 
   36400    100.65242   -8043.1232   -118.44879  -0.53483899   -2.0506307   -352.76089     99.92549    99.724548    101.68882 
   36500    101.03729   -8043.1264   -123.43451    3.1064998   -9.5645956   -363.84544     99.92549    99.724548    101.68984 
   36600     100.8972   -8043.1294   -122.06244   -7.0522499    6.5009236     -365.636     99.92549    99.724548    101.69085 
   36700    100.50166   -8043.1321   -125.14995   -14.293718    8.5677448   -369.72388     99.92549    99.724548    101.69186 
   36800    100.10362   -8043.1349   -142.63924   -68.344584    4.6239272   -364.19707     99.92549    99.724548    101.69288 
   36900    99.853904   -8043.1379   -137.64947   -49.917865   -2.2076815   -360.82286     99.92549    99.724548    101.69389 
   37000    101.55612   -8043.1414   -125.90585   -10.703886    2.6334584   -369.64713     99.92549    99.724548     101.6949 
   37100    99.379038   -8043.1443   -105.27692   -9.8457665    33.854459   -339.83946     99.92549    99.724548    101.69592 
   37200    99.072168   -8043.1473   -99.893807    23.838813    15.857461    -339.3777     99.92549    99.724548    101.69693 
   37300    100.51142   -8043.1509   -96.210095    33.375413    20.279015   -342.28471     99.92549    99.724548    101.69794 
   37400     100.7276   -8043.1544   -101.62216    18.823442    18.464412   -342.15434     99.92549    99.724548    101.69896 
   37500    99.635387   -8043.1574   -118.98117    20.344753   -26.183265   -351.10499     99.92549    99.724548    101.69997 
   37600    99.891875   -8043.1607   -132.42805   -14.175907   -21.788858    -361.3194     99.92549    99.724548    101.70098 
   37700    99.838653   -8043.1639   -129.24646     6.739442   -37.571242   -356.90759     99.92549    99.724548      101.702 
   37800    99.210036   -8043.1666    -131.2215   -8.6104892   -22.029435   -363.02458     99.92549    99.724548    101.70301 
   37900    101.18817   -8043.1707   -142.32622   -12.230268   -23.331304   -391.41708     99.92549    99.724548    101.70402 
   38000     99.77992   -8043.1736   -140.19308   -7.6668427   -27.643844   -385.26854     99.92549    99.724548    101.70504 
   38100    102.13348   -8043.1774   -114.31679    20.519172    16.767219   -380.23676     99.92549    99.724548    101.70605 
   38200    99.580275     -8043.18   -97.212659     45.28344    30.354841   -367.27626     99.92549    99.724548    101.70706 
   38300    100.35378   -8043.1837   -104.51574    6.0666438    46.088889   -365.70275     99.92549    99.724548    101.70808 
   38400    100.66525   -8043.1873   -128.83708    -28.40551    26.185733   -384.29148     99.92549    99.724548    101.70909 
   38500    100.07338   -8043.1905   -106.52454   -10.850061    49.930099   -358.65367     99.92549    99.724548     101.7101 
   38600    99.354377   -8043.1935   -145.44195   -49.836838   -7.3355547   -379.15346     99.92549    99.724548    101.71111 
   38700    99.497021   -8043.1967   -144.08096   -58.197954   -8.7834448   -365.26147     99.92549    99.724548    101.71213 
   38800    101.75311    -8043.201   -137.44873   -3.0392616   -26.203974   -383.10295     99.92549    99.724548    101.71314 
   38900     101.8193   -8043.2044   -126.30812   -21.390206   -1.5251117   -356.00904     99.92549    99.724548    101.71415 
   39000    99.323311   -8043.2072   -113.06162    19.265713   -8.1668193   -350.28374     99.92549    99.724548    101.71517 
   39100     99.95407   -8043.2113   -97.663517    40.576623    18.708337   -352.27551     99.92549    99.724548    101.71618 
   39200    99.451742   -8043.2149   -116.23756    7.1792564    2.8220723   -358.71401     99.92549    99.724548    101.71719 
   39300    98.909458   -8043.2183    -87.88248       62.029    11.966096   -337.64254     99.92549    99.724548    101.71821 
   39400    99.928749   -8043.2221   -121.31491    30.248359   -23.729444   -370.46365     99.92549    99.724548    101.71922 
   39500    99.952413   -8043.2256   -128.84961    6.5058655   -15.586053   -377.46864     99.92549    99.724548    101.72023 
   39600    100.27959   -8043.2293   -150.39534   -11.615847   -49.431922   -390.13824     99.92549    99.724548    101.72125 
   39700    101.00188   -8043.2331   -127.60216    0.3655393   -2.9771838   -380.19484     99.92549    99.724548    101.72226 
   39800    100.63238   -8043.2369    -136.2384   -16.113914   -3.5144286   -389.08686     99.92549    99.724548    101.72327 
   39900      99.7079   -8043.2399   -136.07168   -27.077618    12.318796   -393.45621     99.92549    99.724548    101.72429 
[...]
   85300    99.655139   -8040.9426   -256.86739   -3.4228413   -16.635978   -750.54335     99.92549    99.724548    102.18428 
   85400    99.797117   -8040.9228   -267.62129   -30.122559   -26.948848   -745.79247     99.92549    99.724548    102.18529 
   85500    101.45428   -8040.9036   -254.35935   -27.104747    6.2340248   -742.20732     99.92549    99.724548    102.18631 
   85600    100.27616   -8040.8838   -268.15025   -21.101924   -25.077461   -758.27136     99.92549    99.724548    102.18732 
   85700    99.985241   -8040.8638   -257.55557   -13.229819   -11.100541   -748.33636     99.92549    99.724548    102.18833 
   85800    100.20526   -8040.8448   -249.52437   -22.696868    17.641044   -743.51728     99.92549    99.724548    102.18935 
   85900    101.47902   -8040.8258   -222.86505    20.073983    58.292317   -746.96145     99.92549    99.724548    102.19036 
   86000    99.760199   -8040.8063   -237.10916    10.150205    17.302502   -738.78018     99.92549    99.724548    102.19137 
   86100    98.816269    -8040.787   -231.58256    11.470254    33.232892   -739.45083     99.92549    99.724548    102.19238 
   86200     99.85285   -8040.7684   -254.18097    4.1099375   -15.921367   -750.73148     99.92549    99.724548     102.1934 
   86300    100.39053   -8040.7498   -238.14383    11.562705    19.476181   -745.47036     99.92549    99.724548    102.19441 
   86400    100.62579   -8040.7309   -268.58644    10.402202    -34.26344   -781.89807     99.92549    99.724548    102.19542 
   86500    100.62037   -8040.7122   -293.10836   -28.753794   -67.235419   -783.33586     99.92549    99.724548    102.19644 
   86600    100.06981   -8040.6933   -271.11904   -2.7257033    -45.44689   -765.18451     99.92549    99.724548    102.19745 
   86700    100.90986   -8040.6749    -255.9681   -1.9896736    10.099627   -776.01425     99.92549    99.724548    102.19846 
   86800    101.12547   -8040.6567   -241.92297    5.6865398    17.435298   -748.89075     99.92549    99.724548    102.19948 
   86900    98.805109   -8040.6382   -252.24175    13.499359   -13.067569   -757.15704     99.92549    99.724548    102.20049 
   87000    100.88049   -8040.6202   -236.29176    23.194581    25.485691   -757.55555     99.92549    99.724548     102.2015 
   87100    100.19572    -8040.602   -219.04745    17.421132    52.966752   -727.53024     99.92549    99.724548    102.20252 
   87200    99.800381   -8040.5841    -249.7394    9.3209949    11.490959   -770.03016     99.92549    99.724548    102.20353 
   87300    99.733839   -8040.5665   -263.28078   -37.047913     -6.35467   -746.43976     99.92549    99.724548    102.20454 
   87400    102.55551   -8040.5496   -267.33022   -23.302406    -19.70515    -758.9831     99.92549    99.724548    102.20556 
   87500     100.3589   -8040.5317   -250.00773   -17.100564    28.674397   -761.59701     99.92549    99.724548    102.20657 
   87600    101.57292   -8040.5144   -256.69745   -12.776917    4.3399728    -761.6554     99.92549    99.724548    102.20758 
   87700    101.23016   -8040.4972   -284.33043   -51.024333   -34.141934   -767.82503     99.92549    99.724548     102.2086 
   87800    98.813177   -8040.4794   -243.74505    7.8842455    16.061806    -755.1812     99.92549    99.724548    102.20961 
   87900    101.45124    -8040.463   -226.61939    49.897152    12.218767   -741.97408     99.92549    99.724548    102.21062 
   88000    101.06234   -8040.4458   -241.68024    13.955681    26.838758   -765.83515     99.92549    99.724548    102.21164 
   88100    100.19764   -8040.4289    -261.3077    25.478172   -43.975627   -765.42566     99.92549    99.724548    102.21265 
   88200    100.68712   -8040.4126   -246.73598    40.208396   -6.4367091   -773.97962     99.92549    99.724548    102.21366 
   88300    102.09995   -8040.3962   -256.86094    5.8127781   -6.8744394   -769.52115     99.92549    99.724548    102.21468 
   88400     101.2261   -8040.3797   -268.00771   -14.134952   -6.4280246   -783.46014     99.92549    99.724548    102.21569 
   88500    99.727753   -8040.3626   -287.76694   -37.282164    -52.03822   -773.98043     99.92549    99.724548     102.2167 
   88600    99.778262   -8040.3464   -262.95164   -2.0086791   -16.227317   -770.61892     99.92549    99.724548    102.21771 
   88700    100.77496   -8040.3306   -253.84522   -12.949391    26.085954   -774.67222     99.92549    99.724548    102.21873 
   88800    100.21596   -8040.3144   -259.86915    -21.44324    11.272666   -769.43687     99.92549    99.724548    102.21974 
   88900    100.87137   -8040.2986   -255.01241   -2.4246301    12.077393      -774.69     99.92549    99.724548    102.22075 
   89000     100.9052    -8040.283   -230.33952    17.858284    53.930734   -762.80758     99.92549    99.724548    102.22177 
   89100    101.27431   -8040.2679   -222.45765    39.620008    44.422529   -751.41548     99.92549    99.724548    102.22278 
   89200    98.901923   -8040.2515   -256.67388   -7.0081875   -6.4782952   -756.53516     99.92549    99.724548    102.22379 
   89300    99.927802   -8040.2367   -271.08154   -31.098976   -1.1087102   -781.03694     99.92549    99.724548    102.22481 
   89400    101.55494   -8040.2217   -264.02887    -5.652948   -24.126517   -762.30716     99.92549    99.724548    102.22582 
   89500    100.20111   -8040.2061   -281.07147   -15.724806   -41.598994    -785.8906     99.92549    99.724548    102.22683 
   89600    102.31781   -8040.1911     -250.597    22.626895   -4.3251307   -770.09275     99.92549    99.724548    102.22785 
   89700     101.2127   -8040.1764   -286.02876   -14.082815   -31.784613   -812.21886     99.92549    99.724548    102.22886 
   89800    98.904231   -8040.1609   -236.62162    45.907753   -13.715374   -742.05724     99.92549    99.724548    102.22987 
   89900    100.22136   -8040.1466   -239.69311    33.286157    18.109921   -770.47542     99.92549    99.724548    102.23089 
   90000     99.73314   -8040.1322   -241.71636    24.786906    20.604458   -770.54045     99.92549    99.724548     102.2319 
   90100    100.83852   -8040.1176   -262.50508    1.9632584  -0.52927771   -788.94922     99.92549    99.724548    102.23291 
   90200    101.44211   -8040.1034   -241.64009  -0.64114266    28.128177    -752.4073     99.92549    99.724548    102.23393 
   90300    99.895907   -8040.0887   -268.97755   -12.880038    4.8808631   -798.93348     99.92549    99.724548    102.23494 
   90400    101.76891    -8040.075   -291.72689   -56.385443   -19.430112   -799.36512     99.92549    99.724548    102.23595 
   90500    100.69269   -8040.0605   -284.03361   -40.738334   -21.726127   -789.63637     99.92549    99.724548    102.23697 
   90600     100.4368   -8040.0467   -259.42255     2.323236   -13.983461   -766.60744     99.92549    99.724548    102.23798 
   90700    100.72874   -8040.0328   -263.82931   -16.710978    9.5251829   -784.30213     99.92549    99.724548    102.23899 
   90800    101.27964   -8040.0193   -258.15169   -12.741233    19.861226   -781.57508     99.92549    99.724548    102.24001 
   90900     101.1285   -8040.0057   -238.50734    31.069968    40.398578   -786.99057     99.92549    99.724548    102.24102 
   91000    100.82746   -8039.9921   -234.91309    34.728332    32.325593   -771.79319     99.92549    99.724548    102.24203 
   91100    101.95083   -8039.9792   -224.15866    34.564716     58.04369    -765.0844     99.92549    99.724548    102.24304 
   91200    99.197682   -8039.9654   -261.63102    16.512863   -7.2352634   -794.17067     99.92549    99.724548    102.24406 
   91300    100.06722   -8039.9525   -290.34429   -31.626292   -61.870069   -777.53652     99.92549    99.724548    102.24507 
   91400    99.392083   -8039.9392   -294.57574   -27.765302   -51.666584   -804.29533     99.92549    99.724548    102.24608 
   91500    100.50799   -8039.9264   -289.99362    1.4325324   -58.400799    -813.0126     99.92549    99.724548     102.2471 
   91600     100.3386   -8039.9136   -292.25788   -21.223445   -43.885416   -811.66478     99.92549    99.724548    102.24811 
   91700    100.10234   -8039.9006   -263.72297    22.380253   -14.370495   -799.17867     99.92549    99.724548    102.24912 
   91800    102.23102   -8039.8888   -242.16883    42.690353    19.247271   -788.44412     99.92549    99.724548    102.25014 
   91900    99.661155   -8039.8751   -238.39359    35.604076    34.752952   -785.53778     99.92549    99.724548    102.25115 
   92000    100.55235   -8039.8633   -245.35751     5.182281    50.946157   -792.20097     99.92549    99.724548    102.25216 
   92100    101.39484    -8039.851   -255.32734   -7.9941205     37.65978   -795.64768     99.92549    99.724548    102.25318 
   92200    101.58752   -8039.8388   -259.27759    1.8655549    12.683948   -792.38228     99.92549    99.724548    102.25419 
   92300    99.536344   -8039.8262   -283.21836   -43.958731   -5.8112529   -799.88508     99.92549    99.724548     102.2552 
   92400    101.81849   -8039.8146   -302.98168   -49.909407   -38.184122   -820.85151     99.92549    99.724548    102.25622 
   92500    100.60731   -8039.8025   -289.75647   -29.769027   -30.302457   -809.19792     99.92549    99.724548    102.25723 
   92600    100.25861   -8039.7902   -273.49285    -8.142607  -0.93285032   -811.40308     99.92549    99.724548    102.25824 
   92700    100.17939   -8039.7789   -266.07744     -8.35803    5.7715254   -795.64581     99.92549    99.724548    102.25926 
   92800    102.04784   -8039.7678   -253.28249    15.748012    18.425524     -794.021     99.92549    99.724548    102.26027 
   92900    100.86728   -8039.7555   -233.22651    62.980537    32.551345    -795.2114     99.92549    99.724548    102.26128 
   93000    100.16788   -8039.7442   -255.19471    40.952879   -6.5316146    -800.0054     99.92549    99.724548     102.2623 
   93100    100.31767   -8039.7328    -252.9832    25.558063    1.1390435   -785.64669     99.92549    99.724548    102.26331 
   93200    102.02327   -8039.7223   -290.24921    -1.734166   -39.403606   -829.60986     99.92549    99.724548    102.26432 
   93300    98.922123     -8039.71   -287.98188    -13.04451   -27.149305   -823.75182     99.92549    99.724548    102.26534 
   93400     99.35051    -8039.699   -285.98178   -14.168209   -19.441136   -824.33601     99.92549    99.724548    102.26635 
   93500    101.05979   -8039.6887   -287.85165   -28.783272   -21.271987    -813.4997     99.92549    99.724548    102.26736 
   93600    100.27257   -8039.6777   -277.53991   -13.133014    7.5190094   -827.00573     99.92549    99.724548    102.26837 
   93700    101.17434   -8039.6667   -276.16908   -38.247283    23.924319   -814.18427     99.92549    99.724548    102.26939 
   93800     101.1656   -8039.6561   -254.10089    -1.242812    45.871453   -806.93131     99.92549    99.724548     102.2704 
   93900    100.50767   -8039.6456   -248.01011    17.813861    33.982416   -795.82661     99.92549    99.724548    102.27141 
   94000    101.64472   -8039.6354   -232.83891    27.755133    61.420786   -787.69266     99.92549    99.724548    102.27243 
   94100    100.79264   -8039.6251   -273.10799    5.0154941   -1.7500478   -822.58942     99.92549    99.724548    102.27344 
   94200    100.06304   -8039.6146   -271.00176   -10.616442    5.0490716   -807.43791     99.92549    99.724548    102.27445 
   94300    99.872082   -8039.6047    -295.5218   -22.724847    -35.54925    -828.2913     99.92549    99.724548    102.27547 
   94400    99.716341   -8039.5944   -293.60073   -32.870335   -35.124555   -812.80729     99.92549    99.724548    102.27648 
   94500    100.49514   -8039.5846   -294.78602   -20.969728   -37.084563   -826.30378     99.92549    99.724548    102.27749 
   94600    99.763127   -8039.5743   -278.77923   -3.2899444   -20.891396   -812.15635     99.92549    99.724548    102.27851 
   94700     100.8419   -8039.5649   -269.02289    37.112246   -25.323285   -818.85764     99.92549    99.724548    102.27952 
   94800    100.53184   -8039.5552   -253.93862     37.76354    10.268621   -809.84802     99.92549    99.724548    102.28053 
   94900    101.13315    -8039.546   -249.22228    38.831868    18.461523   -804.96024     99.92549    99.724548    102.28155 
   95000    99.431047   -8039.5361   -257.68143    43.611281    10.972529   -827.62811     99.92549    99.724548    102.28256 
   95100     100.6391   -8039.5273   -269.67032   -2.2393178    13.383797   -820.15544     99.92549    99.724548    102.28357 
   95200    100.55775    -8039.518   -272.36631   -16.757044     22.61534   -822.95721     99.92549    99.724548    102.28459 
   95300    98.373825   -8039.5081   -274.61839     -39.4324    21.085475   -805.50824     99.92549    99.724548     102.2856 
   95400    99.278566   -8039.4995   -302.56842   -69.115081   -16.235175   -822.35501     99.92549    99.724548    102.28661 
   95500    99.857454   -8039.4907   -294.70359   -37.043128   -1.5314439   -845.53619     99.92549    99.724548    102.28763 
   95600    100.72796   -8039.4819   -268.71139   -12.511779    35.698121   -829.32052     99.92549    99.724548    102.28864 
   95700    100.54206   -8039.4728   -282.89342   -2.1272418    -23.18501   -823.36799     99.92549    99.724548    102.28965 
   95800    100.68154   -8039.4646   -282.74722    3.2874769   -10.231783   -841.29736     99.92549    99.724548    102.29067 
   95900    100.19367   -8039.4556   -265.09322    34.027616    1.5634475   -830.87073     99.92549    99.724548    102.29168 
   96000    101.28604   -8039.4476   -230.81807    71.733052    31.637004   -795.82426     99.92549    99.724548    102.29269 
   96100    99.235487   -8039.4389   -264.56025    45.372617   -19.046068   -820.00729     99.92549    99.724548     102.2937 
   96200     100.4239   -8039.4307   -289.73348    6.1000045   -38.777187   -836.52326     99.92549    99.724548    102.29472 
   96300    101.21939   -8039.4228   -279.63127    29.153683   -26.256272   -841.79122     99.92549    99.724548    102.29573 
   96400    100.64133   -8039.4147     -277.661   -7.4549876   -4.7225391   -820.80548     99.92549    99.724548    102.29674 
   96500    101.25749   -8039.4067    -290.1484   -12.805593    -13.35679    -844.2828     99.92549    99.724548    102.29776 
   96600    100.17736   -8039.3987   -324.43186   -55.880308    -58.07557    -859.3397     99.92549    99.724548    102.29877 
   96700    101.18533   -8039.3907   -286.79195   -18.219642    8.9664762   -851.12268     99.92549    99.724548    102.29978 
   96800    99.719793   -8039.3827   -255.20855    16.820542    54.851032   -837.29724     99.92549    99.724548     102.3008 
   96900    101.76604   -8039.3755   -273.02363   -13.675612    31.998581   -837.39385     99.92549    99.724548    102.30181 
   97000    100.95065   -8039.3677   -277.15996   -23.416518    30.858791   -838.92214     99.92549    99.724548    102.30282 
   97100    99.961509   -8039.3602   -262.11282   -3.9503983    51.256844   -833.64491     99.92549    99.724548    102.30384 
   97200    100.08375   -8039.3529   -259.05872  -0.54403624     42.09533   -818.72745     99.92549    99.724548    102.30485 
   97300    100.65726   -8039.3456    -296.8183   -18.021297   -28.344886    -844.0887     99.92549    99.724548    102.30586 
   97400    98.887466   -8039.3381   -293.59662   -13.889157   -39.220403   -827.68029     99.92549    99.724548    102.30688 
   97500    100.94999   -8039.3316    -289.5471    5.9887969   -20.792518   -853.83758     99.92549    99.724548    102.30789 
   97600     102.2655   -8039.3253   -283.30973    25.376381   -44.639411   -830.66617     99.92549    99.724548     102.3089 
   97700    100.37622   -8039.3176    -286.2064    12.846009   -26.652927    -844.8123     99.92549    99.724548    102.30992 
   97800    100.42268   -8039.3111   -283.96414    15.224842   -21.117596   -845.99967     99.92549    99.724548    102.31093 
   97900    101.32675   -8039.3046   -255.31004    44.624286    15.484456   -826.03885     99.92549    99.724548    102.31194 
   98000    99.149156   -8039.2976   -255.42127    35.345457    19.994745   -821.60401     99.92549    99.724548    102.31296 
   98100    101.40552   -8039.2918   -289.92988   -22.509053   -2.9746386   -844.30596     99.92549    99.724548    102.31397 
   98200    100.39466   -8039.2849   -293.18437    6.3879737   -26.288485    -859.6526     99.92549    99.724548    102.31498 
   98300    101.06352   -8039.2789   -286.35875   -16.436925    2.6289411   -845.26827     99.92549    99.724548      102.316 
   98400    100.47808   -8039.2728   -281.74428   -11.148311    21.451096   -855.53563     99.92549    99.724548    102.31701 
   98500    99.584526   -8039.2663    -307.6786    -39.43738   -11.576215   -872.02219     99.92549    99.724548    102.31802 
   98600    99.468531     -8039.26    -284.3237    -29.12699    29.140724   -852.98484     99.92549    99.724548    102.31903 
   98700    99.289196   -8039.2542    -271.5601   -18.411538    43.778886   -840.04763     99.92549    99.724548    102.32005 
   98800     100.9265    -8039.249   -277.43474   -21.406055    39.859039   -850.75721     99.92549    99.724548    102.32106 
   98900    100.14878   -8039.2425   -288.74494   -21.453197    3.5093808   -848.29101     99.92549    99.724548    102.32207 
   99000    100.90351   -8039.2374   -279.35916    6.6847701    15.278882   -860.04113     99.92549    99.724548    102.32309 
   99100    100.60766   -8039.2321   -283.44498    10.861126    -2.418532   -858.77752     99.92549    99.724548     102.3241 
   99200    101.45064   -8039.2268   -272.65456    49.296884   -20.755122   -846.50546     99.92549    99.724548    102.32511 
   99300    100.21964   -8039.2214   -309.27083    14.397971   -62.890431   -879.32003     99.92549    99.724548    102.32613 
   99400    100.28965   -8039.2159   -292.19716    35.000654   -48.950159   -862.64198     99.92549    99.724548    102.32714 
   99500    101.33112   -8039.2112   -271.47926    18.217063    7.7244627    -840.3793     99.92549    99.724548    102.32815 
   99600    100.23218   -8039.2057   -274.48836    28.501464     8.904005   -860.87054     99.92549    99.724548    102.32917 
   99700    101.46063   -8039.2012   -298.99984   -19.465541   -8.8558201   -868.67815     99.92549    99.724548    102.33018 
   99800    102.44426   -8039.1967   -290.96553   -38.196007    8.9201326   -843.62071     99.92549    99.724548    102.33119 
   99900    101.31065   -8039.1919   -275.67104   -22.312352    48.382583   -853.08334     99.92549    99.724548    102.33221 
  100000    100.00319   -8039.1871   -287.43735   -23.937606    27.285821   -865.66028     99.92549    99.724548    102.33322 
Loop time of 64.5821 on 28 procs for 100000 steps with 5538 atoms

Performance: 133.783 ns/day, 0.179 hours/ns, 1548.416 timesteps/s
99.8% CPU use with 28 MPI tasks x 1 OpenMP threads

MPI task timing breakdown:
Section |  min time  |  avg time  |  max time  |%varavg| %total
---------------------------------------------------------------
Pair    | 43.692     | 49.948     | 55.844     |  47.4 | 77.34
Neigh   | 1.2307     | 1.5551     | 1.8455     |  13.9 |  2.41
Comm    | 2.4194     | 8.3432     | 14.976     | 126.8 | 12.92
Output  | 1.7564     | 1.7744     | 1.7769     |   0.3 |  2.75
Modify  | 1.8997     | 2.6152     | 3.6387     |  37.0 |  4.05
Other   |            | 0.3465     |            |       |  0.54

Nlocal:    197.786 ave 227 max 162 min
Histogram: 2 3 5 0 2 1 4 3 3 5
Nghost:    690.821 ave 730 max 655 min
Histogram: 3 2 4 3 3 2 3 3 3 2
Neighs:    6987.04 ave 8432 max 5457 min
Histogram: 3 2 3 2 3 3 5 2 1 4
FullNghs:  13975.4 ave 16081 max 11216 min
Histogram: 1 2 4 3 1 2 4 3 4 4

Total # of neighbors = 391312
Ave neighs/atom = 70.6594
Neighbor list builds = 5378
Dangerous builds = 0
Total wall time: 0:01:17
