ITEM: TIMESTEP
20000
ITEM: NUMBER OF ATOMS
5538
ITEM: BOX BOUNDS pp pp pp
0.382303 99.6177
-0.0776302 100.078
4.34804 95.652
ITEM: ATOMS id type x y z 
213 1 43.8495 49.1597 17.2123 
4 1 48.8703 34.0022 7.69956 
8 1 39.9066 38.2399 7.64374 
11 1 41.7085 36.0402 7.50996 
1 1 42.9033 36.6623 5.30855 
12 1 42.8117 38.4062 7.66054 
15 1 44.4175 36.1449 7.62891 
2 1 47.1778 36.164 7.51162 
3 1 45.55 36.7706 5.01014 
16 1 45.6019 38.5774 7.47384 
80 1 49.9933 36.3309 7.59188 
19 1 48.3627 36.8681 5.17961 
78 1 48.4465 38.7254 7.6 
7 1 35.809 39.2666 5.27259 
25 1 35.5668 40.7897 7.62271 
6 1 37.0486 38.3962 7.65187 
10 1 38.4917 39.1571 5.21204 
29 1 38.4209 40.6574 7.65521 
14 1 41.401 39.0768 5.1589 
33 1 41.2289 40.7385 7.63712 
18 1 44.0561 39.1319 5.16002 
37 1 44.0672 40.9822 7.60089 
22 1 46.8854 39.3601 5.11338 
41 1 46.8728 41.0687 7.56854 
21 1 49.9208 39.3318 5.13365 
20 1 49.8899 41.1039 7.61365 
28 1 34.4418 41.5834 5.25859 
27 1 35.6557 44.1196 5.21011 
23 1 34.2833 43.2417 7.58017 
32 1 37.0553 41.6135 5.21818 
31 1 38.4387 44.1926 5.28198 
26 1 36.9736 43.2279 7.70652 
9 1 39.8329 41.5873 5.25934 
30 1 39.7076 43.2402 7.71831 
36 1 41.249 44.1182 5.1873 
13 1 42.6039 41.7132 5.17699 
40 1 44.1073 44.2654 5.23431 
34 1 42.5674 43.2644 7.55347 
17 1 45.5319 41.7575 5.18978 
39 1 46.8378 44.1675 5.288 
38 1 45.3723 43.4546 7.67767 
44 1 48.3152 41.7902 5.26438 
43 1 49.6009 44.3103 5.12578 
67 1 48.2749 43.5467 7.61663 
50 1 31.6968 46.5079 5.21677 
24 1 32.9763 44.1966 5.34701 
47 1 32.8458 45.7228 7.6769 
54 1 34.2844 46.6202 5.14311 
51 1 35.5782 45.7563 7.75433 
58 1 37.1116 46.7095 5.31369 
55 1 38.3113 45.7939 7.68431 
62 1 39.884 46.4824 5.26029 
59 1 41.159 45.7516 7.54372 
35 1 42.6345 46.7835 5.21299 
63 1 43.9747 45.9218 7.62508 
1438 1 45.4646 46.7254 5.25789 
70 1 46.6839 45.9474 7.67147 
68 1 49.4658 46.0114 7.54008 
46 1 32.6757 48.9625 5.16005 
45 1 31.597 48.1777 7.49987 
48 1 34.2109 48.2357 7.7234 
49 1 35.5448 49.141 5.24629 
53 1 38.2474 49.1275 5.29377 
52 1 36.9331 48.3553 7.78296 
56 1 39.5784 48.2093 7.69261 
57 1 41.0422 49.1403 5.34114 
60 1 42.4245 48.259 7.65423 
66 1 43.9421 49.196 5.25232 
64 1 45.1934 48.3551 7.51175 
65 1 48.0371 48.3668 7.47451 
87 1 42.924 35.2643 9.86037 
91 1 45.7552 35.1486 9.9959 
95 1 48.4715 35.2023 10.0253 
82 1 38.2898 37.6822 10.0914 
84 1 41.1199 37.385 9.98753 
88 1 44.1988 37.5815 10.0677 
92 1 46.9855 37.6695 10.0368 
96 1 49.9043 37.8454 10.0129 
101 1 37.0279 39.9971 9.93041 
105 1 39.8881 39.9093 10.1065 
109 1 42.7112 39.9128 10.0601 
113 1 45.5759 40.0975 10.0104 
117 1 48.3351 40.2422 9.96414 
99 1 35.4797 42.4774 10.1876 
102 1 38.3376 42.3667 10.0101 
106 1 41.2312 42.4114 10.0113 
110 1 44.0942 42.409 10.1137 
114 1 46.9531 42.7005 10.1098 
118 1 49.6187 42.8172 10.0406 
123 1 34.1419 44.927 10.014 
127 1 36.8343 44.8577 10.1078 
131 1 39.7868 44.8831 10.0647 
135 1 42.5427 44.8436 9.96354 
139 1 45.3287 44.963 10.1083 
143 1 48.1326 45.276 10.1209 
121 1 32.7297 47.4037 9.9193 
124 1 35.4505 47.3779 10.1051 
147 1 33.9183 49.8755 10.1322 
128 1 38.2524 47.3315 10.2489 
148 1 36.7721 49.9959 10.12 
217 1 46.7235 49.2635 17.249 
132 1 41.0397 47.3984 10.0606 
221 1 49.6421 49.192 17.2388 
136 1 43.8529 47.5125 10.0744 
140 1 46.6559 47.6569 9.96791 
220 1 49.5367 47.5841 14.8551 
144 1 49.5453 47.7125 9.8646 
216 1 46.688 47.5659 14.9326 
77 1 44.3283 34.5867 12.1978 
79 1 47.0883 34.4957 12.4588 
81 1 49.89 34.5151 12.3884 
226 1 42.3927 50.0035 14.8146 
86 1 39.7626 36.8563 12.3727 
90 1 42.5787 36.6591 12.2798 
94 1 45.6187 36.9477 12.4449 
98 1 48.4597 36.9017 12.3673 
172 1 49.7672 37.63 14.8388 
83 1 38.2599 39.0625 12.5027 
85 1 41.242 39.1871 12.429 
89 1 44.1175 39.3694 12.3697 
93 1 46.9786 39.4089 12.3914 
97 1 49.7494 39.3952 12.3883 
100 1 35.2357 43.9917 12.4218 
104 1 36.7971 41.4901 12.4083 
103 1 38.1445 44.0113 12.4914 
108 1 39.679 41.5881 12.4391 
107 1 41.0338 44.0862 12.4631 
182 1 41.1381 42.4561 14.894 
112 1 42.4986 41.7178 12.4595 
111 1 43.8693 44.2115 12.5902 
116 1 45.3772 41.7777 12.4916 
115 1 46.7271 44.2971 12.4422 
120 1 48.2881 41.8732 12.4486 
119 1 49.5413 44.4117 12.473 
126 1 33.885 46.4505 12.4928 
130 1 36.7733 46.5716 12.4277 
134 1 39.7091 46.5727 12.4842 
138 1 42.541 46.496 12.4583 
142 1 45.2962 46.7163 12.4781 
146 1 48.1411 46.8347 12.5269 
122 1 32.6057 48.8494 12.4642 
125 1 35.3324 48.9949 12.5339 
129 1 38.1574 49.0902 12.3956 
133 1 40.993 49.1443 12.4227 
137 1 43.8623 49.1291 12.3304 
141 1 46.7047 49.2216 12.4311 
145 1 49.5365 49.2966 12.4268 
163 1 43.037 35.3387 14.6057 
167 1 45.7225 35.0389 14.7414 
155 1 46.924 34.352 17.095 
153 1 44.0396 34.3479 17.0042 
171 1 48.3747 35.1764 14.8147 
157 1 49.6918 34.0775 17.1075 
158 1 38.504 37.5337 14.88 
162 1 39.6776 36.7662 17.0959 
160 1 41.227 37.429 14.6167 
166 1 42.6034 36.626 17.1109 
164 1 44.0934 37.6669 14.7394 
168 1 46.9467 37.6351 14.7112 
170 1 45.4642 36.6875 17.0499 
174 1 48.2785 36.7275 17.138 
177 1 36.9986 39.9324 14.8694 
159 1 38.1199 39.0654 17.1395 
181 1 39.7398 40.0011 14.7343 
161 1 41.108 39.0665 17.1714 
185 1 42.5875 39.9563 14.9294 
165 1 44.0675 39.1204 17.2176 
189 1 45.5217 40.0785 14.8564 
169 1 46.9103 39.2064 17.2117 
193 1 48.3195 40.1674 14.8501 
173 1 49.6744 39.1336 17.2812 
175 1 35.4365 42.4473 14.6128 
176 1 35.2972 43.7672 17.1969 
180 1 36.7208 41.4291 17.1966 
178 1 38.17 42.4417 14.7862 
179 1 38.151 43.8408 17.3321 
184 1 39.5996 41.4627 17.0969 
183 1 41.0024 44.0503 17.179 
186 1 43.9418 42.4654 14.7754 
187 1 43.8372 44.0852 17.2751 
188 1 42.543 41.6205 17.2096 
190 1 46.839 42.5306 14.9501 
191 1 46.8112 44.1913 17.3045 
192 1 45.3918 41.6803 17.216 
194 1 49.6444 42.6884 14.8805 
195 1 49.6209 44.2769 17.2561 
196 1 48.3299 41.6815 17.2491 
199 1 33.9265 44.8303 14.7525 
202 1 33.8987 46.1959 17.1901 
203 1 36.697 44.8642 14.9217 
206 1 36.7858 46.3968 17.1965 
207 1 39.583 44.8797 14.8358 
210 1 39.5492 46.4726 17.3016 
211 1 42.4127 44.9531 14.9977 
214 1 42.4955 46.6094 17.267 
215 1 45.3931 44.9837 14.9211 
218 1 45.2731 46.6846 17.1816 
219 1 48.0932 45.0647 14.9526 
222 1 48.1002 46.7448 17.2751 
198 1 32.6853 48.6413 17.1802 
197 1 32.5787 47.3517 14.8372 
200 1 35.3207 47.261 14.8067 
201 1 35.3887 48.8316 17.2111 
223 1 33.8252 49.7275 14.8326 
224 1 36.7818 49.8321 14.8234 
204 1 38.267 47.3874 14.8313 
205 1 38.1333 49.0456 17.2377 
212 1 43.8271 47.5001 14.8658 
209 1 40.9589 49.0502 17.3507 
208 1 41.0156 47.4678 14.8453 
149 1 39.5776 49.8651 10.1243 
151 1 45.1741 49.9676 10.052 
225 1 39.5824 49.9315 14.8054 
239 1 42.6292 35.01 19.4805 
230 1 44.1064 32.7609 19.0554 
243 1 45.4396 35.0084 19.3635 
232 1 46.6484 32.6287 19.2893 
247 1 48.1977 34.9243 19.5622 
234 1 38.4427 37.4432 19.6412 
236 1 41.1792 37.3853 19.4793 
240 1 43.9703 37.3926 19.4769 
244 1 46.763 37.4596 19.5373 
248 1 49.627 37.4071 19.6224 
253 1 36.8856 39.7726 19.5113 
257 1 39.7194 39.721 19.5917 
261 1 42.5685 39.9199 19.5278 
265 1 45.381 39.9222 19.6046 
269 1 48.1615 39.9963 19.6325 
251 1 35.4612 42.1561 19.5788 
254 1 38.2897 42.1693 19.458 
258 1 41.1097 42.37 19.5691 
262 1 43.9914 42.4268 19.6317 
266 1 46.7705 42.5157 19.6752 
270 1 49.6339 42.4382 19.6552 
275 1 34.1145 44.5539 19.6179 
279 1 36.8262 44.5958 19.5641 
283 1 39.6692 44.819 19.5649 
287 1 42.5569 44.8381 19.663 
291 1 45.2255 44.9537 19.5261 
295 1 48.1551 45.0051 19.7622 
273 1 32.5697 47.0698 19.5408 
276 1 35.2611 46.9796 19.5885 
299 1 33.6827 49.5334 19.5408 
300 1 36.5513 49.5697 19.5945 
280 1 38.1232 47.2421 19.5966 
301 1 39.5243 49.8132 19.6914 
284 1 40.9819 47.3301 19.6565 
302 1 42.507 49.8751 19.7203 
288 1 43.8432 47.5024 19.6359 
292 1 46.728 47.4904 19.6767 
303 1 45.267 49.8923 19.6173 
3049 1 49.259 32.6161 19.4287 
296 1 49.51 47.4796 19.6007 
315 1 43.0255 34.6405 24.0418 
229 1 44.0971 33.8383 21.6103 
231 1 46.8327 33.6839 21.7285 
306 1 44.7841 32.3774 23.749 
319 1 45.7747 34.7283 24.1346 
233 1 49.6669 33.851 21.952 
308 1 47.3498 32.2806 24.033 
304 1 48.2099 49.9525 19.6327 
323 1 48.4827 34.7017 24.4482 
238 1 39.7826 36.5961 21.8168 
310 1 38.6462 37.3354 24.1393 
312 1 41.3442 37.0521 24.1543 
242 1 42.6503 36.4178 21.7957 
316 1 44.0727 37.0966 24.2342 
246 1 45.4461 36.3132 21.9597 
320 1 46.9233 37.2325 24.3196 
250 1 48.2404 36.2534 21.9719 
324 1 49.7052 37.2387 24.3859 
329 1 37.1149 39.8221 24.2364 
235 1 38.3341 38.9954 21.9008 
333 1 39.8889 39.7065 24.3357 
237 1 41.1944 38.8765 21.8262 
337 1 42.6654 39.5877 24.2497 
241 1 44.0618 38.9419 21.8597 
245 1 46.8865 38.8228 21.9383 
341 1 45.4632 39.77 24.3633 
249 1 49.6877 38.8189 21.9496 
345 1 48.2987 39.7965 24.2832 
252 1 35.3227 43.7015 21.978 
327 1 35.4781 42.0257 24.2448 
256 1 36.8732 41.3701 21.901 
255 1 38.2176 43.7836 21.8287 
330 1 38.2848 42.1667 24.2806 
260 1 39.7788 41.3974 21.8913 
259 1 41.1177 43.9906 21.9015 
334 1 41.2302 42.1875 24.2885 
264 1 42.6006 41.3912 21.9533 
263 1 43.9727 43.9476 21.9435 
338 1 43.9445 42.2601 24.2979 
268 1 45.4864 41.3584 22.0032 
267 1 46.7927 43.9687 22.0052 
342 1 46.8492 42.2468 24.3362 
272 1 48.3041 41.4484 21.9649 
271 1 49.6736 44.0515 22.0113 
346 1 49.736 42.3169 24.3479 
278 1 33.9146 46.1661 21.8927 
351 1 33.962 44.51 24.217 
282 1 36.7309 46.2445 21.9378 
355 1 36.6685 44.5819 24.235 
286 1 39.6648 46.3992 21.9884 
359 1 39.5993 44.6331 24.2038 
290 1 42.5814 46.4381 21.9272 
363 1 42.5155 44.7363 24.2911 
294 1 45.293 46.54 21.9753 
367 1 45.3649 44.7702 24.2451 
298 1 48.1963 46.5958 22.1101 
371 1 48.2142 44.7025 24.3964 
274 1 32.4462 48.453 21.9338 
375 1 33.5807 49.5129 24.2107 
349 1 32.5568 47.0031 24.2916 
277 1 35.1879 48.7032 21.9029 
352 1 35.1752 47.0755 24.2823 
376 1 36.589 49.594 24.3137 
281 1 38.0692 48.8456 22.0092 
356 1 38.0607 47.1226 24.2451 
377 1 39.4975 49.5351 24.3454 
285 1 40.9912 48.8991 21.9535 
360 1 40.9429 47.1147 24.3638 
378 1 42.3262 49.6699 24.3317 
289 1 43.9289 49.024 22.0666 
364 1 43.8211 47.1978 24.329 
379 1 45.2769 49.7169 24.4937 
293 1 46.7072 49.0303 22.0688 
368 1 46.7007 47.2689 24.3878 
297 1 49.5915 49.1591 21.9769 
372 1 49.7343 47.3553 24.3462 
380 1 48.172 49.7701 24.3302 
305 1 44.3841 33.6348 26.2526 
307 1 47.1625 33.5961 26.5671 
309 1 49.9534 33.6924 26.6888 
314 1 39.8848 36.4443 26.6032 
318 1 42.7241 36.0908 26.4985 
322 1 45.5441 36.1397 26.5665 
326 1 48.4222 36.2681 26.7325 
311 1 38.4054 38.7836 26.6228 
313 1 41.2274 38.7518 26.5526 
317 1 44.1428 38.6762 26.5496 
321 1 46.9453 38.8274 26.6424 
325 1 49.7746 38.7989 26.693 
328 1 35.3605 43.5611 26.6117 
332 1 36.9766 41.282 26.5686 
331 1 38.3237 43.8012 26.5997 
336 1 39.7552 41.2511 26.5889 
335 1 41.0736 43.886 26.5955 
340 1 42.7032 41.2304 26.619 
339 1 43.9721 43.8403 26.6339 
344 1 45.4917 41.3686 26.6974 
343 1 46.8887 43.9189 26.6937 
348 1 48.2942 41.3539 26.6606 
347 1 49.6655 43.8873 26.7105 
354 1 33.8167 46.0125 26.5603 
358 1 36.7207 46.192 26.6567 
362 1 39.5333 46.3438 26.6365 
366 1 42.4698 46.366 26.717 
370 1 45.3555 46.399 26.8075 
374 1 48.2595 46.4976 26.6883 
350 1 32.4506 48.4582 26.5736 
353 1 35.0662 48.6094 26.6119 
357 1 38.0289 48.7285 26.6379 
361 1 40.9557 48.8729 26.6818 
365 1 43.8404 48.8584 26.7406 
369 1 46.8284 48.8661 26.7509 
373 1 49.7945 49.0584 26.7327 
385 1 43.3572 34.4754 28.8154 
381 1 45.2158 32.4022 28.474 
382 1 47.9541 32.3286 28.8389 
387 1 46.1288 34.7353 28.9392 
420 1 48.3529 49.7193 29.0538 
419 1 45.3062 49.7381 29.0766 
389 1 48.8687 34.804 29.0965 
383 1 38.7147 37.2242 28.9969 
384 1 41.4528 36.9917 28.7744 
386 1 44.3023 37.0664 28.8317 
388 1 47.1655 37.2146 29.0227 
412 1 46.8447 47.2791 29.0795 
392 1 37.1234 39.6269 28.9731 
394 1 39.9326 39.6673 28.8349 
396 1 42.7641 39.5371 28.9183 
398 1 45.5583 39.6242 28.9318 
400 1 48.3845 39.8019 28.9585 
391 1 35.6391 41.9835 29.0061 
393 1 38.3477 42.143 28.9614 
395 1 41.2106 42.259 28.8239 
397 1 44.0851 42.1674 28.9724 
399 1 46.9754 42.2067 28.9432 
401 1 49.7664 42.3211 29.0502 
414 1 49.8075 47.2933 29.0718 
403 1 34.0709 44.5306 28.892 
405 1 36.8301 44.5273 28.9679 
407 1 39.7181 44.6837 28.9071 
409 1 42.6226 44.7416 28.8912 
411 1 45.4177 44.7161 29.0373 
413 1 48.3615 44.8593 29.0177 
415 1 33.4734 49.5604 28.893 
402 1 32.6195 46.9781 28.9267 
404 1 35.1804 47.0231 28.8972 
416 1 36.4961 49.4977 28.9495 
406 1 38.0887 47.1497 28.9758 
417 1 39.4531 49.5897 29.0441 
408 1 41.0359 47.2117 28.9302 
418 1 42.4164 49.7014 29.0475 
410 1 43.9418 47.2324 29.096 
467 1 43.1505 34.4959 33.5172 
471 1 45.877 34.4996 33.5642 
421 1 44.5786 33.6357 31.0356 
458 1 47.6812 32.1905 33.458 
475 1 48.7558 34.5378 33.7601 
552 1 49.9693 36.988 38.2434 
442 1 49.7296 43.9902 31.3221 
462 1 38.6215 37.0208 33.6215 
426 1 40.0089 36.2807 31.2305 
464 1 41.3674 36.7888 33.5405 
428 1 42.7897 35.9916 31.2453 
468 1 44.2719 37.0034 33.6015 
430 1 45.6736 36.1608 31.2788 
472 1 47.1565 37.0555 33.6158 
432 1 48.559 36.2296 31.535 
481 1 37.1125 39.576 33.5731 
485 1 39.8993 39.4588 33.516 
424 1 38.3812 38.5646 31.2742 
489 1 42.6679 39.5056 33.4954 
425 1 41.2679 38.5619 31.0839 
427 1 44.0577 38.5891 31.2796 
493 1 45.6354 39.5938 33.434 
429 1 47.0191 38.7373 31.3487 
497 1 48.494 39.5991 33.5879 
431 1 49.8274 38.8066 31.3511 
435 1 36.8059 41.1563 31.337 
479 1 35.4909 42.0675 33.715 
433 1 35.4612 43.6476 31.2886 
482 1 38.2719 42.0302 33.5466 
437 1 39.5861 41.0579 31.2199 
434 1 38.212 43.6711 31.2853 
436 1 41.0571 43.7135 31.1408 
486 1 41.0406 41.9642 33.4509 
490 1 44.0336 42.0864 33.4653 
438 1 43.8723 43.802 31.2315 
439 1 42.5269 41.1357 31.1451 
441 1 45.4876 41.2287 31.1928 
494 1 46.8762 42.1918 33.5393 
440 1 46.7737 43.9133 31.3228 
477 1 49.928 38.8169 35.9228 
443 1 48.3469 41.3799 31.3172 
446 1 33.8423 46.0438 31.3061 
503 1 33.8966 44.5903 33.5627 
507 1 36.7341 44.5686 33.5997 
448 1 36.7012 46.1902 31.2053 
511 1 39.6132 44.6019 33.5272 
450 1 39.5483 46.3803 31.289 
515 1 42.418 44.5805 33.5224 
452 1 42.3832 46.3348 31.2973 
519 1 45.2642 44.6732 33.5888 
454 1 45.3144 46.3487 31.3837 
523 1 48.218 44.6774 33.5914 
456 1 48.2177 46.4187 31.3509 
527 1 33.6026 49.4989 33.592 
444 1 32.3834 48.3865 31.279 
501 1 32.5411 47.0237 33.5581 
528 1 36.4839 49.49 33.5662 
504 1 35.2693 46.9693 33.5673 
445 1 35.0648 48.6907 31.2705 
529 1 39.3914 49.6107 33.6174 
508 1 38.0906 47.0752 33.5783 
447 1 37.9645 48.8113 31.2908 
449 1 40.9214 48.9025 31.2947 
512 1 41.044 47.1877 33.5843 
530 1 42.3625 49.6367 33.6683 
516 1 43.8678 47.2146 33.61 
451 1 43.8542 48.8511 31.4165 
453 1 46.8027 48.8923 31.2963 
520 1 46.7146 47.268 33.6466 
531 1 45.3076 49.7557 33.6057 
532 1 48.1584 49.8093 33.5826 
524 1 49.6647 47.262 33.6099 
455 1 49.7881 48.9699 31.4212 
457 1 44.3511 33.6215 35.9133 
459 1 47.1788 33.472 35.9131 
466 1 39.9405 36.2476 35.933 
470 1 42.8042 35.8827 35.8171 
474 1 45.7655 36.0169 35.9556 
478 1 48.5476 36.24 35.8956 
463 1 38.3928 38.5384 35.8685 
465 1 41.3469 38.4965 35.8103 
469 1 44.1791 38.5835 35.7676 
473 1 46.9953 38.6596 35.8922 
422 1 47.321 33.5948 31.2262 
484 1 36.8751 41.0646 35.8748 
480 1 35.295 43.6265 35.9494 
488 1 39.6755 41.0182 35.795 
483 1 38.1173 43.6291 35.821 
492 1 42.5204 41.1929 35.7393 
487 1 40.9893 43.6099 35.7567 
496 1 45.4628 41.2613 35.8185 
491 1 43.9579 43.7107 35.8368 
495 1 46.831 43.841 35.8476 
500 1 48.3479 41.2297 35.8619 
499 1 49.7125 43.8836 35.8936 
506 1 33.7636 46.0608 35.9074 
510 1 36.6423 46.1121 35.87 
514 1 39.57 46.1934 35.8195 
518 1 42.4465 46.1852 35.8932 
522 1 45.3955 46.3739 35.9189 
526 1 48.2507 46.4335 35.9255 
502 1 32.4904 48.4107 36.0159 
505 1 35.1425 48.7093 35.9137 
509 1 38.0643 48.7232 35.932 
513 1 40.9409 48.7811 35.9128 
517 1 43.8594 48.8329 35.8789 
521 1 46.815 48.9407 35.893 
525 1 49.7256 48.9335 35.8689 
543 1 42.9159 34.3875 38.1891 
547 1 45.636 34.3687 38.1788 
533 1 44.192 33.6566 40.5446 
534 1 47.1793 32.1382 38.1411 
551 1 48.4508 34.505 38.1386 
535 1 46.9273 33.4247 40.5247 
538 1 38.5147 37.0951 38.1926 
542 1 39.8148 36.2534 40.4258 
540 1 41.4015 36.7522 38.1499 
546 1 42.6281 35.9392 40.5588 
544 1 44.1343 36.9278 38.1178 
550 1 45.453 36.0916 40.4034 
548 1 47.082 36.9947 38.2017 
554 1 48.3772 36.1326 40.4635 
557 1 37.1275 39.5308 38.2165 
561 1 39.9862 39.3387 38.2094 
539 1 38.3315 38.5189 40.5733 
565 1 42.7162 39.4845 38.0797 
541 1 41.2877 38.534 40.5456 
569 1 45.5468 39.4738 38.0806 
545 1 44.0966 38.606 40.4582 
549 1 46.9617 38.7551 40.4335 
573 1 48.4345 39.5429 38.2345 
618 1 49.867 37.0967 42.7609 
555 1 35.6181 41.944 38.2182 
556 1 35.2918 43.4685 40.5328 
560 1 36.8289 40.98 40.4677 
558 1 38.3795 41.9298 38.0905 
564 1 39.7413 40.9411 40.5325 
559 1 38.1929 43.4783 40.5411 
562 1 41.2183 41.914 38.1732 
568 1 42.7068 41.1315 40.5024 
563 1 41.0964 43.5836 40.448 
566 1 44.0251 41.9722 38.1474 
572 1 45.5356 41.2543 40.4464 
567 1 44.0751 43.7299 40.3946 
571 1 46.9928 43.7568 40.4774 
570 1 46.9682 42.0832 38.1275 
574 1 49.8862 42.0985 38.1904 
576 1 48.3976 41.341 40.4555 
575 1 49.8972 43.8372 40.5076 
579 1 34.048 44.4602 38.287 
582 1 33.8123 45.8734 40.6251 
583 1 36.7944 44.4686 38.2084 
586 1 36.6191 45.9097 40.562 
587 1 39.71 44.4408 38.1297 
590 1 39.6181 46.0072 40.443 
591 1 42.5075 44.4975 38.0882 
594 1 42.5532 46.2063 40.457 
595 1 45.423 44.6084 38.1331 
598 1 45.473 46.3227 40.4557 
599 1 48.3706 44.6127 38.2135 
602 1 48.4096 46.3858 40.5755 
577 1 32.6517 46.8536 38.3043 
603 1 33.7141 49.4679 38.2356 
604 1 36.6273 49.4901 38.2894 
580 1 35.3185 46.9753 38.1535 
581 1 35.2364 48.5164 40.5526 
605 1 39.5317 49.5166 38.1701 
584 1 38.1363 46.9969 38.1547 
585 1 38.0882 48.5842 40.5502 
606 1 42.4631 49.6142 38.1758 
588 1 41.0221 47.0526 38.1637 
589 1 41.0386 48.6556 40.4611 
593 1 43.933 48.7826 40.4922 
592 1 43.9252 47.1023 38.1968 
596 1 46.8807 47.2253 38.2179 
607 1 45.3733 49.6777 38.2098 
597 1 46.8542 48.9291 40.4867 
601 1 49.7214 48.9326 40.5631 
600 1 49.8154 47.2372 38.2479 
608 1 48.2774 49.7607 38.1867 
613 1 43.0679 34.439 42.9105 
609 1 44.9971 32.3867 42.8901 
615 1 45.8811 34.6957 42.8292 
610 1 47.7354 32.1728 42.9672 
617 1 48.7065 34.5369 42.6359 
537 1 49.912 33.5452 40.3236 
611 1 38.4823 36.9341 42.899 
612 1 41.2333 36.75 42.8459 
614 1 44.0671 36.9611 42.8018 
616 1 46.9949 37.2167 42.6526 
648 1 48.3635 49.8188 42.8398 
620 1 37.0079 39.3454 42.9421 
622 1 39.7901 39.2549 42.8969 
624 1 42.6303 39.4269 42.8412 
626 1 45.4632 39.6628 42.7645 
628 1 48.4606 39.741 42.7529 
619 1 35.5031 41.859 42.7465 
621 1 38.2922 41.7803 42.8102 
623 1 41.1511 41.9342 42.8456 
625 1 44.1124 42.1403 42.7982 
627 1 46.9594 42.176 42.8545 
629 1 49.8911 42.2408 42.8587 
631 1 33.9975 44.3632 42.954 
633 1 36.7135 44.3261 42.8361 
635 1 39.6895 44.4338 42.7555 
637 1 42.5979 44.5204 42.7453 
639 1 45.4586 44.6756 42.7456 
641 1 48.4623 44.7604 42.865 
643 1 33.7239 49.4147 42.7456 
630 1 32.5414 46.9228 42.92 
578 1 32.5559 48.4342 40.5309 
644 1 36.6835 49.413 42.8743 
632 1 35.2296 46.9142 42.8523 
645 1 39.5293 49.4253 42.8208 
634 1 38.2016 46.8465 42.7957 
636 1 41.1159 47.0043 42.7591 
646 1 42.4199 49.6401 42.698 
638 1 43.9973 47.1964 42.739 
640 1 46.9414 47.3679 42.8235 
647 1 45.2757 49.7848 42.8029 
642 1 49.9258 47.3237 42.8346 
498 1 49.772 42.2328 33.6679 
553 1 49.8376 38.716 40.5451 
536 1 49.847 32.063 38.0348 
649 1 44.2634 33.6277 45.2578 
650 1 47.0272 33.5007 45.1705 
654 1 39.8606 36.2659 45.1819 
656 1 42.7567 35.9693 45.2059 
658 1 45.4989 36.1411 45.1638 
660 1 48.2818 36.1419 44.9493 
652 1 38.2348 38.4493 45.2386 
653 1 41.2571 38.526 45.1338 
655 1 44.002 38.6316 45.0909 
657 1 46.9783 38.7537 45.0237 
659 1 49.8756 38.7574 45.0303 
663 1 36.7767 41.0174 45.1365 
661 1 35.3482 43.5471 45.1325 
662 1 38.2577 43.5275 45.0402 
665 1 39.556 40.9749 45.1924 
664 1 41.0753 43.6328 45.0473 
667 1 42.5311 41.1778 45.0914 
666 1 43.9591 43.7567 45.046 
669 1 45.4843 41.3338 45.0816 
668 1 46.9051 43.8444 45.0618 
671 1 48.4205 41.3088 45.0968 
670 1 49.7902 43.9532 45.2024 
674 1 33.9043 46.0804 45.1765 
676 1 36.7641 46.0658 45.1224 
678 1 39.6287 46.1127 45.0947 
680 1 42.5459 46.1929 45.0132 
682 1 45.4062 46.3782 45.0225 
684 1 48.329 46.4803 45.0835 
672 1 32.476 48.6509 45.0933 
673 1 35.2116 48.6477 45.1403 
675 1 38.1613 48.6125 45.0847 
677 1 41.0987 48.7371 45.0826 
679 1 43.9028 48.8265 45.1055 
681 1 46.8123 48.9893 45.0761 
683 1 49.8358 49.0043 45.0949 
695 1 43.0123 34.5035 47.593 
685 1 44.12 33.7697 50.0381 
686 1 44.6418 32.3883 47.6595 
699 1 45.7827 34.6343 47.5481 
688 1 47.2751 32.2322 47.7943 
687 1 46.8501 33.6745 49.985 
703 1 48.5583 34.5641 47.3599 
3487 1 49.909 32.1982 47.3988 
690 1 38.4218 37.065 47.5049 
694 1 39.6522 36.4595 49.8142 
692 1 41.2869 36.8884 47.4807 
698 1 42.5263 36.0737 49.8422 
696 1 44.0824 37.0682 47.4367 
702 1 45.4469 36.2851 49.7937 
700 1 46.949 37.1814 47.2847 
706 1 48.3283 36.3149 49.5806 
709 1 36.9308 39.598 47.5607 
691 1 37.9773 38.7021 49.912 
713 1 39.7083 39.3464 47.5083 
693 1 41.1012 38.6773 49.8733 
717 1 42.5107 39.4678 47.5035 
697 1 43.9742 38.7375 49.7239 
721 1 45.3678 39.5944 47.2952 
701 1 46.9026 38.8596 49.5369 
725 1 48.3629 39.6906 47.3365 
708 1 35.1762 43.7166 49.8763 
707 1 35.4695 42.1004 47.4912 
712 1 36.523 41.2388 49.8791 
711 1 38.0785 43.6559 49.8243 
710 1 38.1182 42.0281 47.4564 
716 1 39.4304 41.1383 49.7899 
715 1 41.0088 43.7488 49.736 
714 1 41.0083 41.9415 47.4138 
720 1 42.4076 41.3176 49.7867 
718 1 43.913 42.0531 47.3746 
719 1 43.9397 43.7492 49.6189 
724 1 45.3549 41.2971 49.7646 
722 1 46.7786 42.1993 47.4017 
723 1 46.8236 43.8569 49.6807 
728 1 48.3228 41.4102 49.5877 
726 1 49.7803 42.2272 47.3896 
727 1 49.7975 43.984 49.6811 
734 1 33.7269 46.3533 49.8034 
731 1 33.9876 44.6882 47.5907 
735 1 36.7486 44.4748 47.4243 
738 1 36.5417 46.1714 49.7716 
739 1 39.5235 44.4907 47.3965 
742 1 39.5107 46.1924 49.6757 
743 1 42.3532 44.5154 47.3824 
746 1 42.4844 46.2256 49.6617 
747 1 45.2896 44.5944 47.3057 
750 1 45.4544 46.3601 49.5977 
751 1 48.2343 44.7026 47.3724 
754 1 48.3278 46.5343 49.7125 
729 1 32.6694 47.2616 47.4297 
730 1 32.5011 48.848 49.7236 
755 1 33.8071 49.6994 47.3928 
732 1 35.3919 47.1225 47.4521 
733 1 35.1391 48.7581 49.7651 
756 1 36.7982 49.5533 47.3986 
736 1 38.1655 46.9889 47.4142 
737 1 38.1658 48.6857 49.8209 
757 1 39.6247 49.5428 47.4229 
741 1 41.0055 48.7404 49.6918 
740 1 40.9987 47.0294 47.3488 
758 1 42.4646 49.6757 47.3638 
744 1 43.9291 47.0387 47.3673 
745 1 43.9537 48.779 49.6422 
759 1 45.3813 49.7127 47.4236 
748 1 46.7939 47.2028 47.3735 
749 1 46.8519 48.9456 49.7343 
760 1 48.3185 49.7796 47.3833 
752 1 49.7289 47.243 47.3947 
753 1 49.7693 48.9862 49.6815 
771 1 43.0458 34.5777 52.3418 
762 1 45.4701 32.4331 52.2488 
775 1 45.7519 34.9138 52.2977 
764 1 48.1767 32.2788 52.1035 
836 1 48.1834 49.7813 51.9574 
779 1 48.6228 34.8113 51.9803 
766 1 38.3658 37.1089 52.1659 
768 1 41.1098 36.8966 52.2161 
772 1 43.929 37.154 52.0588 
776 1 46.8925 37.3437 51.9022 
785 1 36.7091 39.6374 52.1601 
789 1 39.5696 39.5179 52.1471 
793 1 42.4717 39.6503 52.1024 
797 1 45.3451 39.7146 52.0053 
801 1 48.2185 39.8793 51.885 
783 1 35.2167 42.1999 52.135 
786 1 38.039 42.0231 52.1807 
790 1 40.9199 42.1168 52.061 
794 1 43.8584 42.2115 52.0665 
798 1 46.7451 42.2587 51.9394 
802 1 49.6959 42.3206 51.926 
807 1 33.8128 44.7628 52.1132 
805 1 32.5463 47.4001 52.1919 
811 1 36.5301 44.546 52.2032 
808 1 35.1632 47.2292 52.1363 
815 1 39.4127 44.6153 52.0987 
819 1 42.3346 44.653 52.0495 
823 1 45.2513 44.7683 51.9268 
827 1 48.2267 44.7948 51.9067 
831 1 33.7637 49.8147 52.1179 
832 1 36.6734 49.7365 52.095 
812 1 37.9702 47.1111 52.1372 
833 1 39.5967 49.6714 51.9944 
816 1 40.95 47.1279 51.9753 
834 1 42.4687 49.7933 51.942 
820 1 43.8557 47.2224 51.9798 
835 1 45.3253 49.7927 52.0206 
824 1 46.7137 47.3356 51.9524 
780 1 49.7378 37.3967 51.8345 
828 1 49.6806 47.3373 52.001 
761 1 44.1566 33.636 54.6063 
763 1 46.8591 33.4635 54.4872 
770 1 39.5761 36.5549 54.4554 
774 1 42.4259 36.2124 54.506 
778 1 45.2199 36.2743 54.4872 
782 1 48.0047 36.3485 54.1234 
767 1 37.9977 38.842 54.4561 
769 1 41.0251 38.8064 54.4047 
773 1 43.8868 38.7997 54.4581 
777 1 46.7168 38.8724 54.2258 
781 1 49.6231 39.0187 54.1917 
788 1 36.5679 41.311 54.4119 
784 1 35.0916 43.8106 54.4241 
787 1 37.933 43.8225 54.4442 
792 1 39.4362 41.2965 54.4083 
791 1 40.8524 43.7528 54.3747 
796 1 42.3787 41.3186 54.4355 
795 1 43.8095 43.8292 54.347 
800 1 45.3488 41.3092 54.3757 
799 1 46.6068 43.9749 54.2674 
803 1 49.5557 43.9958 54.2658 
804 1 48.1486 41.5545 54.219 
810 1 33.7895 46.4503 54.4666 
814 1 36.6704 46.3355 54.4287 
818 1 39.5151 46.3753 54.3741 
822 1 42.3521 46.3423 54.2476 
826 1 45.2219 46.4367 54.3066 
830 1 48.0657 46.4973 54.1944 
806 1 32.5968 48.8238 54.5305 
809 1 35.2928 48.9456 54.4285 
813 1 38.1507 48.9517 54.3291 
821 1 43.878 48.9477 54.2911 
817 1 41.0276 48.912 54.28 
825 1 46.7355 48.9983 54.337 
829 1 49.5883 48.989 54.2386 
705 1 49.7961 38.8787 49.5497 
765 1 49.7206 33.5973 54.1027 
704 1 49.8987 37.1481 47.2873 
689 1 49.6763 33.4873 49.7647 
651 1 49.7963 33.4028 44.9076 
855 1 48.3811 34.7795 56.3784 
856 1 49.5342 37.3423 56.5067 
904 1 49.3865 47.483 56.4959 
847 1 42.8586 34.6609 56.7821 
837 1 43.875 33.857 59.0601 
851 1 45.6442 34.915 56.7445 
1057 1 49.7904 48.999 68.0062 
839 1 46.5419 33.5822 58.9779 
840 1 47.6832 32.306 56.9733 
1048 1 43.7544 47.309 65.8473 
907 1 33.6166 49.8256 56.8308 
841 1 49.4326 33.7404 58.8295 
846 1 39.4704 36.5252 58.9654 
842 1 38.2661 37.3511 56.7723 
850 1 42.281 36.3116 59.1112 
844 1 41.0309 37.2095 56.7846 
848 1 43.826 37.2314 56.851 
854 1 45.1995 36.3653 59.1179 
852 1 46.7939 37.4202 56.6379 
858 1 47.9685 36.2537 58.8609 
1052 1 46.619 47.3452 65.7548 
861 1 36.8007 39.8558 56.6998 
864 1 36.5121 41.2883 59.061 
843 1 38.0188 38.827 58.9705 
865 1 39.546 39.724 56.7489 
868 1 39.4419 41.331 59.1237 
845 1 40.8967 38.814 59.0962 
869 1 42.355 39.7281 56.759 
849 1 43.77 38.8469 59.1562 
873 1 45.1786 39.8051 56.7028 
853 1 46.6506 38.8745 58.9896 
877 1 47.9875 39.8506 56.527 
857 1 49.4943 38.9787 58.8745 
860 1 35.0747 43.807 59.0673 
859 1 35.2804 42.3028 56.8039 
863 1 37.9169 43.8327 59.0659 
862 1 38.0791 42.3424 56.7674 
866 1 40.8178 42.2951 56.7723 
867 1 40.7706 43.9562 59.0596 
872 1 42.2525 41.2908 59.077 
871 1 43.6785 43.9219 58.9648 
870 1 43.7488 42.2535 56.7569 
876 1 45.173 41.4498 58.9998 
875 1 46.6475 44.0084 58.9228 
874 1 46.6902 42.3851 56.6558 
880 1 48.0099 41.4124 58.8814 
879 1 49.4342 44.0173 58.8769 
878 1 49.5537 42.3466 56.5313 
886 1 33.6876 46.4316 59.0102 
883 1 33.881 44.8009 56.7519 
881 1 32.4604 47.232 56.8111 
887 1 36.566 44.7943 56.7537 
890 1 36.4718 46.4236 59.0903 
884 1 35.2196 47.3372 56.7169 
894 1 39.3005 46.4331 58.9841 
891 1 39.4725 44.8307 56.7597 
888 1 38.0851 47.3752 56.6105 
898 1 42.1665 46.4368 59.0002 
895 1 42.3236 44.7259 56.6651 
902 1 45.0443 46.4426 58.899 
899 1 45.2092 44.7503 56.634 
906 1 47.9843 46.557 58.8929 
903 1 48.0319 44.9249 56.5657 
882 1 32.3207 48.9394 59.0587 
1056 1 49.4424 47.3987 65.6199 
885 1 35.0261 49.1358 59.1195 
908 1 36.5994 49.8341 56.7213 
889 1 37.8969 48.9175 59.0374 
909 1 39.4744 49.8932 56.7051 
892 1 40.9264 47.3259 56.6607 
893 1 40.8002 48.9038 59.0511 
910 1 42.2899 49.8664 56.6882 
897 1 43.6691 48.8603 58.9604 
896 1 43.6422 47.2503 56.5691 
911 1 45.0899 49.85 56.6848 
901 1 46.5086 49.0164 58.8884 
900 1 46.5365 47.4141 56.5962 
1064 1 48.1704 49.9345 65.7489 
905 1 49.4535 49.199 58.778 
1049 1 43.7631 48.8953 68.1775 
923 1 42.5114 34.663 61.3313 
927 1 45.2128 34.5539 61.3449 
914 1 46.882 32.2865 61.277 
931 1 48.0161 34.733 61.2316 
916 1 49.5545 32.3809 61.1779 
918 1 38.17 37.3471 61.271 
920 1 40.814 37.1824 61.4832 
924 1 43.6134 37.107 61.3921 
928 1 46.5301 37.21 61.3032 
932 1 49.4366 37.3502 61.0665 
937 1 36.6457 39.7815 61.3766 
941 1 39.3405 39.7159 61.3922 
945 1 42.2998 39.6854 61.4687 
949 1 45.2099 39.7943 61.3197 
953 1 48.0381 39.8137 61.1863 
935 1 35.1994 42.296 61.2994 
938 1 37.9203 42.2828 61.3211 
942 1 40.7612 42.2542 61.3921 
946 1 43.6112 42.2452 61.3679 
950 1 46.5305 42.2269 61.3109 
954 1 49.3929 42.328 61.1756 
959 1 33.7924 44.8252 61.274 
957 1 32.4264 47.4087 61.2127 
963 1 36.4898 44.7653 61.3772 
960 1 35.0659 47.3446 61.3919 
964 1 37.9397 47.3499 61.4173 
967 1 39.318 44.8154 61.3798 
968 1 40.797 47.2731 61.305 
971 1 42.2227 44.8069 61.2544 
975 1 45.0587 44.7447 61.2643 
979 1 47.955 44.8436 61.2533 
1053 1 46.7346 48.8994 68.0446 
984 1 36.3674 49.9054 61.3677 
985 1 39.3896 49.7616 61.3444 
986 1 42.335 49.7747 61.3357 
972 1 43.6649 47.3173 61.3926 
1063 1 45.2932 49.8523 65.8219 
976 1 46.4593 47.3771 61.2073 
980 1 49.4248 47.4996 61.109 
838 1 44.9835 32.4941 56.9953 
913 1 43.7668 33.7569 63.5914 
915 1 46.6995 33.7382 63.5617 
992 1 49.5901 32.1638 65.6167 
917 1 49.5196 33.7132 63.5257 
922 1 39.2942 36.5056 63.6953 
994 1 38.0178 37.2603 65.9867 
996 1 40.739 36.8103 66.0861 
926 1 42.1552 36.1567 63.7002 
1000 1 43.6089 36.9169 66.0074 
930 1 45.0906 36.1705 63.5929 
934 1 48.0156 36.3662 63.48 
1013 1 36.4687 39.8296 65.9679 
919 1 37.7864 38.8265 63.6907 
921 1 40.7268 38.7675 63.7506 
1021 1 42.114 39.5002 66.0259 
925 1 43.6261 38.708 63.6917 
929 1 46.5701 38.8138 63.5892 
933 1 49.4548 38.8497 63.4791 
940 1 36.3632 41.39 63.6426 
936 1 34.8961 43.8557 63.6047 
1011 1 35.1316 42.243 65.8854 
939 1 37.8221 43.8417 63.7208 
1014 1 37.9272 42.1525 66.0029 
944 1 39.1522 41.2831 63.6984 
943 1 40.7209 43.872 63.6444 
1018 1 40.7561 42.159 65.9764 
948 1 42.0988 41.3056 63.7241 
947 1 43.5562 43.8735 63.5719 
952 1 44.99 41.3123 63.6207 
951 1 46.5104 43.8582 63.585 
956 1 47.9642 41.3738 63.6135 
955 1 49.472 43.9656 63.4656 
962 1 33.5655 46.3662 63.5919 
1035 1 33.6661 44.7769 65.8751 
966 1 36.4365 46.491 63.6239 
1039 1 36.4687 44.6993 65.914 
970 1 39.3556 46.4476 63.7494 
1043 1 39.3809 44.7664 65.9622 