ITEM: TIMESTEP
10000
ITEM: NUMBER OF ATOMS
5538
ITEM: BOX BOUNDS pp pp pp
0 100
0 100
0 100
ITEM: ATOMS id type x y z 
163 1 43.0303 35.1851 14.0181 
3 1 47.033 37.1273 4.65186 
1 1 44.3717 37.0147 4.996 
2 1 48.4235 35.1776 5.93981 
145 1 49.7038 49.3316 11.4757 
7 1 37.7065 40.6482 4.53702 
10 1 39.8606 39.0964 4.86488 
14 1 42.5861 39.2242 4.52643 
18 1 45.3523 39.4799 4.32315 
22 1 48.0979 39.6147 4.30485 
28 1 36.0584 42.8967 4.58876 
9 1 40.7891 41.3754 4.0794 
32 1 38.8358 43.1136 4.31936 
13 1 43.6187 41.6925 4.21793 
36 1 41.8482 43.7046 4.12226 
17 1 46.3693 41.9948 4.40758 
44 1 49.0564 42.1522 4.304 
24 1 34.5607 45.1203 4.60802 
27 1 37.2935 45.3373 4.30922 
31 1 40.0642 45.7003 4.34484 
35 1 42.9305 46.1719 4.17232 
40 1 44.7039 44.2376 4.33329 
39 1 47.4621 44.5608 4.54057 
50 1 33.135 47.4211 4.75433 
54 1 35.7477 47.6305 4.4177 
58 1 38.5061 47.944 4.36571 
62 1 41.2899 48.1816 4.2585 
66 1 44.3047 48.4687 4.52039 
87 1 43.3017 34.9477 9.61682 
91 1 45.9312 34.8107 9.5194 
95 1 48.6832 34.9278 9.13206 
82 1 39.0182 37.937 9.22026 
11 1 43.2607 35.9387 7.21064 
84 1 41.8505 37.5033 9.34724 
15 1 45.9925 35.9012 7.01715 
88 1 44.5624 37.3241 9.15023 
78 1 48.7209 38.3082 6.71608 
92 1 47.3475 37.4191 9.14885 
6 1 37.8956 38.8705 6.80288 
101 1 37.5561 40.3042 9.11671 
8 1 40.6316 38.3254 7.10799 
105 1 40.3596 40.2448 9.10613 
12 1 43.3347 38.5164 6.96081 
109 1 43.0838 40.1062 9.08924 
16 1 46.0943 38.5671 6.79814 
113 1 45.7771 40.0816 9.17517 
117 1 48.573 40.1296 9.08126 
23 1 34.6332 43.4512 6.81716 
25 1 36.2614 41.2048 6.7934 
26 1 37.4347 43.6234 6.73271 
99 1 35.9527 42.6219 9.10968 
29 1 39.1376 41.1593 6.67936 
30 1 40.3203 43.7056 6.52708 
102 1 38.7658 42.6969 9.05484 
33 1 41.8773 40.9958 6.54926 
34 1 43.1611 43.5829 6.56998 
106 1 41.6504 42.7364 8.91705 
110 1 44.4063 42.6786 8.98994 
37 1 44.6416 41.038 6.66274 
38 1 45.9583 43.5813 6.72452 
114 1 47.189 42.639 9.15052 
41 1 47.4249 41.0315 6.67292 
67 1 48.6951 43.5935 6.66876 
147 1 33.9868 49.8835 9.23836 
47 1 33.1156 45.7646 6.90354 
123 1 34.4795 44.9715 9.18507 
51 1 35.9081 46.0024 6.79693 
127 1 37.2176 45.0807 9.14104 
55 1 38.7281 46.1441 6.68204 
131 1 40.0423 45.1813 9.02578 
59 1 41.6032 46.1325 6.61781 
135 1 42.9127 45.237 8.99158 
63 1 44.4717 46.1105 6.48106 
139 1 45.6757 45.1943 9.03747 
68 1 49.9166 46.1336 6.66223 
70 1 47.1653 46.1471 6.73914 
143 1 48.4967 45.1473 9.06894 
45 1 31.8542 48.2325 6.95035 
48 1 34.4537 48.4401 6.90613 
121 1 32.9572 47.3491 9.21532 
52 1 37.1712 48.5682 6.68337 
124 1 35.7129 47.4774 9.21845 
56 1 40.0205 48.6799 6.61157 
128 1 38.5146 47.6075 9.09133 
132 1 41.3751 47.669 8.9903 
60 1 42.8629 48.6681 6.60836 
136 1 44.2476 47.7115 8.94294 
64 1 45.8041 48.6069 6.69275 
140 1 47.0712 47.7031 9.06888 
144 1 49.8602 47.6548 9.03902 
65 1 48.5761 48.6232 6.71158 
77 1 44.3967 34.2496 11.8841 
79 1 47.238 34.1829 11.7763 
86 1 40.1521 37.0236 11.6143 
90 1 42.9443 36.6595 11.6597 
94 1 45.8154 36.6165 11.5353 
98 1 48.6046 36.6381 11.5269 
83 1 38.557 39.2554 11.5919 
85 1 41.4851 39.2938 11.5454 
89 1 44.3261 39.1904 11.4706 
93 1 47.1365 39.2238 11.4767 
97 1 49.8755 39.3739 11.5978 
100 1 35.6912 44.021 11.5371 
104 1 37.1305 41.6496 11.5445 
103 1 38.5494 44.1116 11.529 
108 1 40.023 41.7164 11.4213 
112 1 42.8352 41.771 11.3877 
116 1 45.5995 41.7166 11.4117 
120 1 48.4344 41.8341 11.4916 
119 1 49.8536 44.3276 11.3661 
126 1 34.2233 46.3941 11.5551 
130 1 37.0703 46.5746 11.527 
107 1 41.3468 44.2271 11.4055 
134 1 39.8542 46.6936 11.4164 
111 1 44.1669 44.3495 11.4024 
138 1 42.6845 46.7818 11.4199 
115 1 47.0133 44.2855 11.4824 
142 1 45.5222 46.7881 11.3757 
146 1 48.3478 46.819 11.4462 
122 1 32.8483 48.7238 11.5644 
125 1 35.5192 49.056 11.5036 
129 1 38.3598 49.1476 11.4397 
133 1 41.2212 49.2046 11.3334 
137 1 44.0721 49.2768 11.3564 
141 1 46.8332 49.2962 11.3984 
182 1 41.3176 42.5723 13.7994 
186 1 44.1124 42.6571 13.791 
194 1 49.7393 42.7373 13.8152 
199 1 34.1934 44.8106 13.8481 
211 1 42.6412 45.1322 13.8005 
208 1 41.1552 47.5255 13.8002 
216 1 46.8787 47.6478 13.754 
154 1 49.6057 32.9013 13.7688 
189 1 45.5859 40.1845 13.8079 
193 1 48.389 40.2821 13.8611 
190 1 46.9117 42.7093 13.8935 
207 1 39.8328 45.0233 13.8753 
215 1 45.4981 45.1887 13.7846 
219 1 48.398 45.2161 13.8113 
197 1 32.8451 47.2938 13.9004 
177 1 37.2548 40.0255 13.9198 
185 1 42.8095 40.0707 13.8893 
175 1 35.7438 42.411 13.8544 
203 1 36.9712 44.8934 13.8911 
204 1 38.316 47.4268 13.8844 
212 1 44.039 47.5971 13.8193 
220 1 49.7249 47.6711 13.8261 
172 1 49.7987 37.7312 13.9296 
164 1 44.3078 37.6046 13.9397 
168 1 47.0824 37.6578 13.885 
181 1 39.9986 40.0361 13.9348 
178 1 38.4772 42.4456 13.8646 
200 1 35.4703 47.2741 13.9015 
225 1 39.7293 49.8895 13.8386 
224 1 36.8188 49.7872 13.8942 
171 1 48.439 35.1991 14.0456 
158 1 38.7901 37.6629 13.8955 
160 1 41.4624 37.4476 13.9697 
223 1 33.878 49.8374 13.955 
167 1 45.7587 35.057 14.0395 
19 1 49.8591 37.1982 4.54892 
118 1 49.9594 42.6687 9.11393 
46 1 34.1331 49.9802 4.66351 
384 1 41.071 37.2955 28.0062 
404 1 35.3257 47.1865 28.1735 
153 1 44.4629 34.1746 16.3735 
419 1 45.3001 49.8588 28.2817 
408 1 41.0969 47.297 28.2005 
155 1 47.1762 34.1064 16.441 
406 1 38.1945 47.2483 28.1808 
162 1 39.9661 36.8343 16.3296 
415 1 33.7649 49.6675 28.3212 
166 1 42.8283 36.5671 16.3493 
382 1 46.7445 32.4177 28.0242 
402 1 32.6715 47.2078 28.2194 
170 1 45.6494 36.7035 16.3101 
383 1 38.3382 37.5337 28.0299 
174 1 48.412 36.7312 16.3534 
417 1 39.5124 49.6785 28.2373 
405 1 36.779 44.7615 28.1297 
159 1 38.48 39.1251 16.2926 
161 1 41.3599 39.0742 16.2842 
403 1 34.0222 44.7702 28.1322 
165 1 44.1447 39.2264 16.251 
412 1 46.7508 47.2767 28.2366 
169 1 46.9168 39.3017 16.1714 
416 1 36.663 49.6376 28.189 
173 1 49.7537 39.286 16.2424 
390 1 49.6657 37.1942 28.0379 
395 1 41.1484 42.2719 28.1675 
176 1 35.4136 43.9073 16.2581 
180 1 36.9312 41.4868 16.2677 
179 1 38.2882 43.9868 16.2753 
248 1 49.9354 37.8002 18.6262 
184 1 39.7761 41.6316 16.2564 
183 1 41.1733 44.0903 16.2426 
420 1 48.1102 49.7968 28.2713 
188 1 42.6454 41.7081 16.1999 
187 1 44.0303 44.2553 16.1639 
407 1 39.6759 44.809 28.1613 
192 1 45.4947 41.7795 16.2299 
410 1 43.9343 47.3312 28.2229 
196 1 48.3208 41.8623 16.2426 
418 1 42.4377 49.8173 28.2147 
202 1 33.9697 46.3603 16.2776 
386 1 43.9148 37.2366 28.091 
206 1 36.7979 46.4265 16.3047 
400 1 48.25 39.7694 28.0951 
210 1 39.7565 46.5518 16.2772 
413 1 48.1968 44.7467 28.12 
214 1 42.5124 46.6285 16.2697 
399 1 46.7419 42.2826 28.1568 
191 1 46.8967 44.2911 16.2378 
218 1 45.3748 46.7637 16.238 
393 1 38.2532 42.3368 28.1434 
195 1 49.7271 44.3352 16.2542 
222 1 48.2023 46.7753 16.1913 
391 1 35.4736 42.3859 28.0889 
198 1 32.7339 48.8062 16.2594 
201 1 35.3511 48.8867 16.2869 
398 1 45.4159 39.7091 28.1216 
411 1 45.3332 44.7847 28.2355 
205 1 38.2346 48.9594 16.3101 
409 1 42.5017 44.7947 28.2469 
209 1 41.0844 49.0527 16.1926 
397 1 43.9426 42.2214 28.2085 
213 1 43.9467 49.1222 16.2325 
233 1 49.7848 33.9177 20.9336 
401 1 49.6468 42.2729 28.1229 
217 1 46.7343 49.2038 16.2235 
394 1 39.6823 39.8877 28.1235 
221 1 49.5983 49.2362 16.2507 
239 1 43.3961 35.0154 18.6252 
230 1 45.3445 32.8525 18.5981 
243 1 46.0967 35.247 18.7329 
232 1 48.1008 32.8343 18.7458 
247 1 48.8997 35.2782 18.6137 
234 1 38.6275 37.4794 18.6651 
236 1 41.4099 37.332 18.6501 
240 1 44.1812 37.6076 18.6277 
244 1 47.1137 37.8164 18.6497 
414 1 49.564 47.2927 28.1735 
253 1 37.0734 39.911 18.5282 
257 1 39.8869 39.845 18.6158 
261 1 42.685 40.006 18.595 
265 1 45.4878 40.1014 18.5753 
269 1 48.4182 40.2309 18.5476 
251 1 35.5586 42.3369 18.6179 
254 1 38.3596 42.3408 18.6857 
258 1 41.2133 42.4361 18.6202 
262 1 44.0097 42.5582 18.5857 
266 1 46.8562 42.6241 18.6175 
270 1 49.725 42.7139 18.6216 
275 1 34.0934 44.809 18.6126 
279 1 36.8854 44.7197 18.6074 
283 1 39.7833 44.8264 18.6672 
287 1 42.5662 44.9339 18.6706 
291 1 45.3822 45.0642 18.6214 
295 1 48.2125 45.152 18.5968 
299 1 33.8634 49.6992 18.7259 
273 1 32.6402 47.248 18.6156 
276 1 35.3372 47.2065 18.6923 
300 1 36.7644 49.6678 18.6753 
280 1 38.1901 47.2718 18.7001 
284 1 41.0541 47.3553 18.6557 
301 1 39.6075 49.7541 18.6453 
288 1 43.9115 47.4943 18.648 
302 1 42.4019 49.8844 18.5966 
292 1 46.7789 47.6138 18.6473 
296 1 49.6404 47.6213 18.625 
315 1 43.0427 34.8902 23.3282 
229 1 44.3147 34.0815 20.9892 
306 1 44.9256 32.7387 23.3909 
319 1 45.8664 35.0717 23.3081 
308 1 47.5356 32.4648 23.4215 
231 1 46.9287 33.8625 21.0434 
323 1 48.582 34.8631 23.2437 
238 1 39.8821 36.6657 20.9348 
310 1 38.5657 37.5963 23.2911 
312 1 41.2613 37.2575 23.3948 
242 1 42.6772 36.4167 21.0264 
316 1 44.0648 37.4274 23.379 
246 1 45.4658 36.6616 20.9925 
320 1 46.9999 37.5609 23.3076 
250 1 48.2325 36.5114 20.9501 
324 1 49.7917 37.4282 23.2572 
235 1 38.3633 39.0082 20.9045 
329 1 37.0498 39.992 23.3283 
237 1 41.1848 38.9801 21.0127 
333 1 39.7942 39.9063 23.3643 
241 1 44.0156 39.1004 21.041 
337 1 42.587 39.8367 23.4284 
245 1 46.8082 39.2104 21.0069 
341 1 45.4083 39.9246 23.4191 
249 1 49.5857 39.1923 20.999 
345 1 48.2873 40.064 23.3663 
252 1 35.4127 43.8729 20.9816 
327 1 35.5391 42.2874 23.2662 
256 1 36.8728 41.4052 20.9067 
255 1 38.2843 43.9888 21.05 
330 1 38.306 42.4005 23.3396 
260 1 39.7314 41.5014 21.0014 
259 1 41.1951 44.0053 21.0647 
334 1 41.1603 42.4189 23.4245 
264 1 42.635 41.5312 21.0076 
263 1 44.0279 44.0565 21.0324 
338 1 43.9399 42.4064 23.3963 
268 1 45.4462 41.6345 20.9967 
267 1 46.8948 44.2604 21.0141 
342 1 46.7537 42.5013 23.3556 
272 1 48.2193 41.7586 20.9865 
271 1 49.6605 44.2731 21.0102 
346 1 49.6005 42.5468 23.3935 
278 1 33.9082 46.2873 20.9889 
351 1 34.0811 44.7814 23.3242 
282 1 36.7945 46.3839 21.0252 
355 1 36.778 44.7388 23.3869 
286 1 39.6779 46.4573 21.1078 
359 1 39.7222 44.8401 23.477 
290 1 42.5194 46.5349 21.0515 
363 1 42.552 44.8914 23.4669 
294 1 45.3519 46.622 21.0094 
367 1 45.3204 44.9143 23.4145 
298 1 48.247 46.7451 21.0134 
371 1 48.117 44.9959 23.4393 
274 1 32.6069 48.6625 21.0014 
349 1 32.7435 47.2367 23.407 
375 1 33.8267 49.7028 23.504 
277 1 35.3059 48.835 21.0541 
352 1 35.3758 47.2031 23.4512 
356 1 38.23 47.1962 23.4837 
281 1 38.2221 48.8596 21.0972 
376 1 36.7433 49.6359 23.4287 
360 1 41.1491 47.3423 23.4228 
377 1 39.5869 49.6891 23.4576 
285 1 41.0245 49.0081 21.0474 
378 1 42.4399 49.83 23.4964 
364 1 43.9037 47.4328 23.4078 
289 1 43.8243 49.0723 21.0761 
379 1 45.3027 49.9302 23.4931 
293 1 46.6689 49.1355 21.0517 
368 1 46.7068 47.4572 23.4499 
380 1 48.1362 49.8861 23.4157 
372 1 49.6668 47.4388 23.4669 
297 1 49.5923 49.16 21.1187 
305 1 44.1283 34.0563 25.6762 
307 1 46.8662 33.7797 25.6039 
309 1 49.7082 33.7897 25.6099 
314 1 39.697 36.708 25.6846 
318 1 42.5531 36.4226 25.7015 
322 1 45.4562 36.4953 25.7163 
326 1 48.2469 36.3175 25.6275 
311 1 38.2817 39.0873 25.6995 
313 1 41.0543 39.0052 25.7672 
317 1 43.9173 38.9772 25.8092 
321 1 46.8329 38.9767 25.7324 
325 1 49.62 38.8397 25.7057 
328 1 35.3175 43.8672 25.751 
332 1 36.8077 41.5528 25.7119 
331 1 38.1894 43.9953 25.7603 
336 1 39.6099 41.5329 25.7487 
335 1 41.0472 43.9934 25.8584 
340 1 42.5009 41.5041 25.7799 
339 1 43.9708 43.9565 25.8639 
343 1 46.8021 43.9944 25.808 
344 1 45.3598 41.4669 25.7603 
347 1 49.6152 44.0016 25.7799 
348 1 48.2351 41.5166 25.7741 
354 1 33.8015 46.2396 25.7306 
358 1 36.711 46.3662 25.7886 
362 1 39.6243 46.4741 25.8211 
366 1 42.5211 46.4174 25.8054 
370 1 45.3213 46.4417 25.8331 
374 1 48.1239 46.5338 25.8032 
350 1 32.5492 48.6214 25.9001 
353 1 35.1753 48.7701 25.8645 
357 1 38.1061 48.8526 25.8156 
361 1 41.0343 48.9128 25.8659 
365 1 43.8516 48.9971 25.864 
369 1 46.6812 49.0023 25.8965 
373 1 49.5124 49.0568 25.8206 
392 1 36.9503 39.9731 28.1254 
396 1 42.523 39.7598 28.1167 
385 1 42.6545 34.792 28.0195 
389 1 48.3173 34.7584 28.0305 
387 1 45.4978 34.8014 28.0553 
388 1 46.8741 37.2591 28.051 
3195 1 49.4346 32.4543 28.0652 
381 1 44.1124 32.5897 27.9855 
157 1 49.9676 34.0791 16.2325 
613 1 42.4145 34.7025 42.3086 
640 1 46.6202 47.2038 42.3869 
421 1 44.0115 33.9967 30.2778 
648 1 48.0174 49.652 42.5011 
422 1 46.8494 33.7302 30.3796 
646 1 42.2957 49.633 42.5057 
642 1 49.4493 47.1635 42.4263 
423 1 49.7258 33.7071 30.3937 
593 1 43.7253 48.7925 40.0715 
426 1 39.6529 36.7183 30.3617 
647 1 45.1597 49.6843 42.4327 
428 1 42.4021 36.3509 30.3978 
597 1 46.5913 48.7833 40.0466 
601 1 49.4281 48.7422 40.0035 
430 1 45.3707 36.3102 30.5193 
643 1 33.791 49.6825 42.608 
432 1 48.234 36.2643 30.3803 
424 1 38.1597 39.0641 30.4405 
636 1 40.9168 47.1403 42.4907 
435 1 36.7071 41.479 30.5176 
425 1 41.0578 38.9155 30.4733 
645 1 39.4736 49.5799 42.5178 
427 1 43.8768 38.8178 30.4528 
638 1 43.7594 47.1845 42.469 
589 1 40.866 48.7356 40.0887 
429 1 46.7964 38.84 30.4727 
590 1 39.4877 46.2466 40.0923 
431 1 49.5844 38.8378 30.4458 
581 1 35.2093 48.7331 40.148 
433 1 35.2043 43.8547 30.5818 
578 1 32.6128 48.6012 40.1807 
434 1 38.0994 43.9243 30.5621 
437 1 39.5472 41.4222 30.568 
644 1 36.6329 49.6313 42.5154 
436 1 41.0108 43.841 30.556 
439 1 42.4408 41.3721 30.5035 
3341 1 49.0419 32.4895 37.7744 
438 1 43.8524 43.8138 30.5711 
641 1 47.9995 44.6837 42.4281 
441 1 45.3527 41.2942 30.5197 
440 1 46.7158 43.8865 30.5092 
443 1 48.2196 41.3876 30.4765 
602 1 48.0348 46.311 40.0981 
442 1 49.58 43.807 30.532 
631 1 33.8856 44.63 42.5886 
446 1 33.8171 46.2932 30.5516 
629 1 49.448 42.2578 42.3587 
448 1 36.6645 46.361 30.5313 
634 1 38.0624 47.1043 42.4698 
450 1 39.597 46.3912 30.5205 
639 1 45.1588 44.7247 42.3521 
452 1 42.4482 46.4092 30.5669 
632 1 35.2449 47.1486 42.6388 
454 1 45.2409 46.3943 30.6018 
598 1 45.1756 46.305 39.9798 
456 1 48.1866 46.288 30.4983 
444 1 32.522 48.6385 30.6829 
3414 1 49.2906 32.5866 42.4985 
575 1 49.4748 43.8408 39.9951 
576 1 48.0657 41.2975 39.9244 
445 1 35.1663 48.8284 30.5705 
627 1 46.594 42.1676 42.3086 
633 1 36.5802 44.6816 42.5168 
447 1 38.022 48.7826 30.6061 
630 1 32.6403 47.1901 42.6641 
571 1 46.6441 43.8101 39.9757 
449 1 40.8996 48.8917 30.5604 
637 1 42.3282 44.6956 42.3644 
594 1 42.3121 46.3212 40.0854 
451 1 43.815 48.9057 30.6016 
586 1 36.6433 46.2425 40.142 
453 1 46.6163 48.8626 30.5929 
582 1 33.8092 46.1876 40.2497 
585 1 38.0359 48.7824 40.1252 
455 1 49.4431 48.8242 30.6179 
635 1 39.486 44.6121 42.4168 
458 1 47.258 32.4334 32.8202 
467 1 42.7286 34.7553 32.6671 
471 1 45.4281 34.5775 32.7844 
460 1 49.9492 32.4932 32.9562 
475 1 48.2774 34.7089 32.7437 
462 1 38.364 37.4604 32.706 
464 1 41.0325 37.1357 32.7755 
468 1 43.866 37.1447 32.8148 
472 1 46.768 37.1342 32.784 
476 1 49.6212 37.2389 32.7294 
481 1 36.9372 39.8932 32.8303 
485 1 39.6767 39.7575 32.9152 
489 1 42.4862 39.6898 32.8652 
493 1 45.3414 39.6593 32.8328 
497 1 48.1839 39.649 32.8545 
479 1 35.3535 42.3117 32.8784 
482 1 38.1456 42.2943 32.9163 
486 1 41.0324 42.2373 32.901 
490 1 43.8869 42.1575 32.8711 
494 1 46.7741 42.1888 32.897 
498 1 49.6643 42.1421 32.8588 
501 1 32.6154 47.147 33.0287 
503 1 33.9143 44.7453 32.9417 
504 1 35.3048 47.1464 32.9649 
507 1 36.625 44.6848 32.9726 
511 1 39.5307 44.691 32.8882 
515 1 42.4375 44.724 32.8861 
519 1 45.2712 44.6737 32.8972 
523 1 48.1478 44.635 32.8649 
527 1 33.7412 49.6699 33.0134 
508 1 38.1312 47.1096 33.0063 
528 1 36.614 49.6451 32.9523 
512 1 40.9958 47.2285 32.9596 
529 1 39.4595 49.6526 32.9505 
516 1 43.8409 47.2107 32.9604 
530 1 42.3435 49.6855 32.9542 
520 1 46.7151 47.137 32.8834 
531 1 45.1902 49.7191 32.9459 
524 1 49.556 47.0954 32.8974 
532 1 48.0347 49.6588 32.9246 
534 1 43.7616 32.5484 37.4155 
536 1 46.4181 32.4213 37.6154 
543 1 42.4612 34.7915 37.5035 
457 1 43.8337 33.9347 35.0853 
547 1 45.1933 34.7694 37.5231 
459 1 46.6436 33.7401 35.155 
551 1 47.9824 34.7631 37.4847 
461 1 49.5079 33.7604 35.235 
538 1 38.0977 37.3741 37.5683 
466 1 39.4197 36.7074 35.1744 
540 1 40.8287 37.0857 37.5849 
470 1 42.2948 36.3262 35.1708 
544 1 43.7201 37.2039 37.598 
474 1 45.2168 36.2469 35.1817 
548 1 46.6102 37.2144 37.503 
478 1 48.1255 36.2128 35.0636 
552 1 49.484 37.183 37.5318 
463 1 37.9461 38.9079 35.2349 
557 1 36.7865 39.8078 37.6467 
484 1 36.6172 41.4103 35.2539 
465 1 40.9893 38.8575 35.2361 
561 1 39.5305 39.6502 37.6402 
488 1 39.4729 41.3199 35.2834 
469 1 43.8494 38.7619 35.1896 
565 1 42.3189 39.6265 37.629 
473 1 46.7162 38.7187 35.1217 
569 1 45.1663 39.6895 37.4977 
477 1 49.5746 38.787 35.1977 
573 1 48.0501 39.6484 37.486 
480 1 35.2278 43.8371 35.3727 
555 1 35.3858 42.2312 37.735 
483 1 38.0861 43.8267 35.2983 
558 1 38.1142 42.1857 37.7011 
487 1 40.9786 43.7804 35.2443 
562 1 40.9543 42.155 37.6226 
492 1 42.3672 41.3066 35.2361 
491 1 43.8442 43.7867 35.2139 
566 1 43.7507 42.1675 37.5385 
496 1 45.3035 41.2778 35.2037 
495 1 46.6928 43.7916 35.2593 
570 1 46.683 42.1391 37.5734 
500 1 48.1421 41.2702 35.2189 
499 1 49.5631 43.8299 35.2454 
574 1 49.4787 42.1809 37.5815 
506 1 33.8385 46.2049 35.3733 
579 1 33.9148 44.6566 37.7715 
580 1 35.2578 47.119 37.7565 
510 1 36.625 46.2746 35.3626 
583 1 36.6869 44.6438 37.7288 
584 1 38.0874 47.1529 37.7604 
514 1 39.5194 46.2748 35.3418 
587 1 39.526 44.6833 37.6903 
518 1 42.3703 46.3097 35.2847 
591 1 42.3267 44.6768 37.622 
522 1 45.2211 46.2882 35.2927 
595 1 45.2056 44.5976 37.639 
526 1 48.0563 46.296 35.3039 
599 1 48.0642 44.6803 37.6553 
577 1 32.6683 47.1077 37.8064 
502 1 32.6023 48.5769 35.4495 
505 1 35.2111 48.7553 35.3569 
603 1 33.7621 49.6256 37.815 
509 1 38.0381 48.7942 35.3127 
604 1 36.6525 49.6295 37.7138 
588 1 40.9206 47.1507 37.7281 
513 1 40.8981 48.7814 35.3443 
605 1 39.4844 49.6191 37.7114 
592 1 43.7849 47.0791 37.6722 
517 1 43.714 48.858 35.3478 
606 1 42.2796 49.6332 37.7161 
521 1 46.5607 48.7782 35.2709 
596 1 46.6229 47.1011 37.6796 
607 1 45.1776 49.6155 37.6749 
608 1 47.9879 49.6025 37.6663 
525 1 49.4438 48.7483 35.3158 
600 1 49.5499 47.1763 37.6658 
609 1 44.0788 32.7326 42.3236 
610 1 46.7032 32.6048 42.5939 
533 1 43.8245 33.8837 39.8658 
535 1 46.7023 33.8266 40.0197 
615 1 45.2828 34.9513 42.4391 
537 1 49.532 33.929 40.0233 
617 1 48.0667 34.907 42.3795 
542 1 39.3978 36.6322 39.9286 
611 1 38.1573 37.3392 42.4199 
612 1 40.8403 37.0376 42.4061 
546 1 42.2303 36.2326 40.0095 
614 1 43.6869 37.1775 42.4161 
550 1 45.2409 36.2955 39.9531 
616 1 46.6724 37.3875 42.373 
554 1 48.0997 36.3764 39.8759 
618 1 49.4982 37.2574 42.3213 
539 1 37.9918 38.8975 40.0261 
560 1 36.6195 41.3542 40.0769 
620 1 36.7703 39.7738 42.4418 
541 1 40.9452 38.7657 40.043 
564 1 39.4992 41.285 40.0588 
622 1 39.496 39.6208 42.4654 
545 1 43.8489 38.7249 39.976 
624 1 42.3071 39.5843 42.3744 
549 1 46.6293 38.8076 39.8585 
626 1 45.1348 39.6973 42.2992 
553 1 49.535 38.8814 39.9036 
628 1 48.0698 39.8038 42.3037 
556 1 35.2346 43.8324 40.0858 
619 1 35.3816 42.2406 42.5085 
559 1 38.0355 43.7505 40.1262 
621 1 38.1033 42.172 42.4845 
563 1 40.9676 43.7234 40.0206 
623 1 40.9617 42.1169 42.3604 
568 1 42.4385 41.2522 39.9527 
567 1 43.7737 43.7752 39.9872 
625 1 43.7313 42.2035 42.3435 
572 1 45.2473 41.3553 39.925 
904 1 49.4816 47.1091 56.8701 
649 1 43.6651 34.0789 44.8178 
650 1 46.483 34.043 44.9101 
651 1 49.3263 34.1057 44.8411 
654 1 39.3384 36.5997 44.835 
656 1 42.2065 36.3474 44.8097 
658 1 45.061 36.4666 44.8427 
660 1 47.9339 36.491 44.7378 
652 1 38 38.8736 44.8716 
663 1 36.5733 41.3069 44.8751 
653 1 40.8472 38.8163 44.8548 
665 1 39.4525 41.2991 44.8146 
655 1 43.7611 38.9241 44.6975 
667 1 42.3426 41.352 44.7718 
657 1 46.5779 39.0207 44.6594 
659 1 49.3965 39.0134 44.6737 
661 1 35.2323 43.771 44.9272 
662 1 38.0387 43.7585 44.939 
664 1 40.9211 43.7878 44.7387 
666 1 43.7347 43.8994 44.7642 
669 1 45.1879 41.4552 44.7363 
668 1 46.5806 43.8938 44.7443 
671 1 48.0381 41.445 44.7134 
670 1 49.4719 43.9034 44.7707 
674 1 33.8666 46.1295 45.0328 
676 1 36.7468 46.2682 44.9673 
678 1 39.516 46.2155 44.8278 
680 1 42.3685 46.3493 44.8801 
682 1 45.2203 46.4087 44.7606 
684 1 48.0882 46.3613 44.7508 
672 1 32.5939 48.588 44.9818 
673 1 35.2065 48.732 45.0118 
675 1 38.0344 48.7432 44.9161 
677 1 40.8848 48.7293 44.9024 
679 1 43.7678 48.8471 44.8778 
681 1 46.6008 48.8496 44.8036 
683 1 49.4724 48.8567 44.8062 
686 1 43.8931 32.7022 47.1392 
688 1 46.5171 32.6395 47.2244 
695 1 42.3858 34.9586 47.3317 
685 1 43.7529 34.0483 49.63 
699 1 45.0712 35.0236 47.3218 
689 1 49.3204 34.0162 49.7162 
687 1 46.4907 33.9938 49.6952 
703 1 47.8895 35.0206 47.2724 
690 1 37.9984 37.351 47.2573 
694 1 39.4382 36.7932 49.6445 
692 1 40.7047 37.1337 47.1828 
698 1 42.2137 36.6337 49.6395 
696 1 43.5051 37.4858 47.1709 
702 1 44.9974 36.6556 49.5566 
700 1 46.4174 37.4666 47.1144 
706 1 47.8342 36.6749 49.5515 
704 1 49.3263 37.3857 47.0964 
691 1 37.9922 39.0099 49.7092 
709 1 36.6108 39.754 47.2796 
712 1 36.6298 41.3596 49.714 
693 1 40.8934 39.0416 49.6121 
713 1 39.3559 39.6854 47.237 
716 1 39.5051 41.4279 49.7086 
717 1 42.1363 39.8225 47.142 
697 1 43.6609 39.1525 49.5586 
720 1 42.3052 41.5544 49.5908 
701 1 46.4997 39.1041 49.4795 
721 1 45.0522 39.8991 47.1084 
724 1 45.1764 41.5633 49.5217 
705 1 49.3709 39.0795 49.5471 
725 1 47.8863 39.8411 47.103 
728 1 47.9809 41.5349 49.5146 
708 1 35.1909 43.7199 49.7719 
707 1 35.3744 42.216 47.2901 
710 1 38.0453 42.1481 47.3222 
711 1 38.0339 43.8445 49.7561 
714 1 40.8318 42.2399 47.1953 
715 1 40.8993 43.9232 49.6787 
718 1 43.6921 42.2959 47.1375 
719 1 43.7937 43.9639 49.6218 
722 1 46.5786 42.3745 47.1081 
723 1 46.6765 44.0065 49.5299 
726 1 49.4443 42.2466 47.2021 
727 1 49.5011 43.9516 49.5306 
729 1 32.6494 47.067 47.3482 
731 1 33.9415 44.5839 47.3772 
734 1 33.8134 46.1434 49.7499 
732 1 35.2833 47.0363 47.3612 
735 1 36.6843 44.6109 47.3828 
738 1 36.6106 46.2742 49.807 
736 1 38.1046 47.1382 47.3113 
739 1 39.4841 44.6694 47.2396 
742 1 39.4323 46.2582 49.7234 
740 1 40.9238 47.0941 47.2799 
743 1 42.3112 44.6826 47.2378 
746 1 42.2951 46.3876 49.6672 
744 1 43.8123 47.2053 47.2654 
747 1 45.1438 44.7715 47.1517 
750 1 45.1939 46.4189 49.6295 
751 1 48.0494 44.776 47.1505 
754 1 48.0985 46.3946 49.6499 
730 1 32.4095 48.5989 49.7271 
733 1 35.0546 48.7532 49.7437 
755 1 33.6959 49.5931 47.3693 
737 1 37.9597 48.7355 49.7366 
756 1 36.5804 49.5898 47.339 
741 1 40.8118 48.7132 49.6897 
757 1 39.4607 49.5616 47.3121 
745 1 43.7343 48.8461 49.6607 
758 1 42.3399 49.5761 47.3266 
748 1 46.6679 47.187 47.1854 
749 1 46.6188 48.8084 49.5876 
759 1 45.2124 49.6638 47.2916 
752 1 49.5079 47.2035 47.2163 
753 1 49.4545 48.856 49.6126 
760 1 48.0719 49.6612 47.2355 
762 1 44.9057 32.8273 51.9647 
764 1 47.6003 32.6695 51.9344 
771 1 42.4696 34.9561 51.9722 
775 1 45.1308 35.2933 51.9337 
779 1 47.9083 35.1257 51.9128 
766 1 38.1134 37.4956 52.1161 
768 1 40.8244 37.2909 52.0652 
772 1 43.5604 37.5508 52.0098 
776 1 46.5305 37.6131 51.883 
780 1 49.416 37.4892 51.9279 
785 1 36.6575 39.809 52.0821 
789 1 39.463 39.7657 52.1286 
793 1 42.262 39.8883 52.1046 
797 1 45.1192 39.9549 52.0159 
801 1 48.0217 39.9264 51.9406 
783 1 35.2623 42.2155 52.2007 
786 1 38.0359 42.1801 52.1553 
790 1 40.8808 42.2675 52.1103 
794 1 43.773 42.3247 51.9917 
798 1 46.6895 42.3408 51.9536 
802 1 49.5426 42.3169 51.9356 
805 1 32.5026 47.0633 52.0939 
807 1 33.9037 44.6536 52.1696 
808 1 35.1298 47.1059 52.1481 
811 1 36.5992 44.643 52.1787 
812 1 38.0247 47.1113 52.1564 
815 1 39.4652 44.6711 52.1758 
816 1 40.8926 47.0945 52.1591 
819 1 42.3398 44.7018 52.0784 
820 1 43.7172 47.1703 52.05 
823 1 45.2389 44.7942 52.0219 
824 1 46.6149 47.1749 52.0757 
827 1 48.14 44.7284 52.0151 
831 1 33.5598 49.5597 52.1231 
832 1 36.5324 49.5491 52.1249 
833 1 39.4339 49.5428 52.0771 
834 1 42.2686 49.5344 52.0698 
835 1 45.1533 49.6205 52.0345 
828 1 49.5048 47.2134 52.0528 
836 1 47.9939 49.6605 51.9456 
838 1 43.627 32.821 56.5966 
840 1 46.2424 32.7806 56.5751 
847 1 42.2389 34.9908 56.8616 
761 1 43.666 34.1099 54.2594 
851 1 45.0025 35.0914 56.7454 
763 1 46.3964 34.0558 54.2151 
765 1 49.2681 34.0193 54.2317 
855 1 47.8818 35.0129 56.669 
842 1 38.0628 37.5533 56.9456 
770 1 39.3863 36.8696 54.5281 
844 1 40.7896 37.3593 56.8968 
848 1 43.6249 37.4502 56.8954 
774 1 42.2665 36.5073 54.4215 
778 1 45.0506 36.6338 54.432 
852 1 46.567 37.3991 56.823 
782 1 47.9156 36.5403 54.3211 
856 1 49.4968 37.3545 56.7909 
767 1 37.9495 39.1371 54.5739 
861 1 36.6686 39.8831 56.9645 
788 1 36.5809 41.4496 54.5873 
769 1 40.8869 39.0016 54.5285 
865 1 39.5088 39.8175 56.9537 
792 1 39.4935 41.458 54.5638 
773 1 43.7406 39.0913 54.4701 
869 1 42.3287 39.8247 56.9273 
796 1 42.3372 41.4833 54.4331 
777 1 46.6052 39.0823 54.4146 
873 1 45.1761 39.8414 56.865 
800 1 45.223 41.5184 54.4538 
877 1 48.1291 39.7945 56.8196 
781 1 49.4513 38.9965 54.3797 
804 1 48.0384 41.4609 54.3975 
784 1 35.1632 43.8157 54.6152 
859 1 35.332 42.252 57.0785 
862 1 38.1024 42.2445 57.0387 
787 1 37.9982 43.8341 54.5838 
866 1 40.9637 42.2892 56.957 
791 1 40.8882 43.8922 54.5312 
870 1 43.807 42.2615 56.8941 
795 1 43.7764 43.91 54.477 
874 1 46.6874 42.2457 56.8807 
799 1 46.6363 43.9293 54.4362 
803 1 49.5181 43.8893 54.4123 
878 1 49.6149 42.2284 56.8143 
881 1 32.5376 47.11 56.8812 
883 1 33.9324 44.7486 57.0332 
810 1 33.7481 46.1431 54.54 
884 1 35.2084 47.1301 56.9175 
814 1 36.5397 46.2483 54.4898 
888 1 38.0397 47.1741 56.9186 
887 1 36.6238 44.6512 57.018 
892 1 40.8756 47.1792 56.9695 
891 1 39.5081 44.6824 56.9527 
818 1 39.4196 46.3199 54.5704 
896 1 43.7432 47.2142 56.9086 
822 1 42.2763 46.3459 54.5423 
895 1 42.3538 44.7517 56.8723 
899 1 45.2467 44.7221 56.8897 
826 1 45.1703 46.3551 54.4633 
903 1 48.1439 44.6446 56.8441 
830 1 48.035 46.3238 54.4348 
806 1 32.4855 48.5027 54.4857 
907 1 33.6397 49.6029 56.855 
809 1 35.1324 48.7432 54.561 
908 1 36.6366 49.6655 56.8844 
813 1 37.9755 48.7542 54.5207 
909 1 39.4909 49.6439 56.8942 
817 1 40.8147 48.7954 54.526 
910 1 42.3204 49.6469 56.9172 
821 1 43.6933 48.7545 54.4622 
911 1 45.1655 49.5864 56.7974 
825 1 46.5528 48.8065 54.3757 
900 1 46.633 47.1062 56.8254 
829 1 49.3976 48.7928 54.4347 
912 1 48.0021 49.5249 56.7892 
3633 1 48.9799 32.7544 56.7206 
3487 1 49.1713 32.7831 47.3069 
837 1 43.7436 34.0781 59.0781 
839 1 46.5374 33.9829 59.0778 
841 1 49.3751 33.8898 59.1676 
846 1 39.387 36.6605 59.3168 
850 1 42.2159 36.3636 59.3508 
854 1 45.1616 36.4418 59.275 
858 1 48.0751 36.3996 59.185 
843 1 38.0195 39.0148 59.3257 
864 1 36.6179 41.4483 59.3917 
845 1 40.9041 38.8621 59.3088 
868 1 39.528 41.3667 59.3616 
849 1 43.8061 38.909 59.3643 
872 1 42.3809 41.3724 59.2871 
853 1 46.7001 38.8512 59.1477 
876 1 45.2544 41.3724 59.2787 
857 1 49.574 38.9428 59.2381 
860 1 35.2231 43.8475 59.4487 
863 1 38.0388 43.8674 59.441 
867 1 40.9703 43.91 59.3351 
871 1 43.8687 43.8271 59.2634 
875 1 46.6808 43.8789 59.2782 
880 1 48.0945 41.3698 59.2695 
879 1 49.5087 43.8075 59.26 
886 1 33.7631 46.2548 59.3604 
890 1 36.6165 46.2905 59.3309 
894 1 39.5768 46.3543 59.3502 
898 1 42.4198 46.3565 59.3158 
902 1 45.2403 46.3608 59.3151 
906 1 48.0845 46.2927 59.3139 
882 1 32.4994 48.6649 59.2304 
885 1 35.1455 48.7622 59.188 
889 1 38.1237 48.788 59.2903 
893 1 40.9606 48.8473 59.2708 
897 1 43.8466 48.8192 59.2871 
901 1 46.7171 48.7333 59.2688 
905 1 49.5392 48.7609 59.2335 
914 1 46.9809 32.5583 61.4262 
916 1 49.6131 32.4743 61.5788 
923 1 42.6008 34.8138 61.7022 
913 1 43.9829 34.0491 64.099 
927 1 45.2751 34.6634 61.5851 
915 1 46.8144 33.821 63.9315 
931 1 48.1386 34.8216 61.5672 
917 1 49.6295 33.902 63.9476 
918 1 38.2249 37.43 61.615 
922 1 39.6074 36.6663 64.135 
920 1 40.9196 37.1492 61.7326 
924 1 43.7682 37.216 61.6661 
926 1 42.4221 36.2842 64.0996 
928 1 46.6186 37.248 61.5558 
930 1 45.3734 36.3465 63.9934 
932 1 49.5342 37.26 61.5805 
934 1 48.1699 36.3575 63.9876 
937 1 36.8904 39.8422 61.744 
919 1 38.1288 38.8635 64.117 
940 1 36.7943 41.3415 64.1787 
941 1 39.6344 39.6865 61.7518 
921 1 41.1102 38.8372 64.0714 
944 1 39.6105 41.2666 64.0999 
945 1 42.4354 39.7409 61.6964 
925 1 43.899 38.7883 64.0472 
948 1 42.532 41.3411 64.1178 
949 1 45.2903 39.7162 61.6609 
929 1 46.7728 38.8382 64.1039 
953 1 48.1285 39.6958 61.6508 
933 1 49.6229 38.8824 63.9621 
936 1 35.2758 43.7861 64.1944 
935 1 35.4516 42.3425 61.871 
938 1 38.158 42.2116 61.7399 
939 1 38.1389 43.7812 64.1322 
942 1 41.0358 42.2447 61.6404 
943 1 41.0439 43.7926 64.067 
946 1 43.9243 42.1803 61.6946 
947 1 43.9323 43.7712 64.0511 
952 1 45.4103 41.3147 64.0615 
950 1 46.7665 42.2008 61.6708 
951 1 46.7823 43.8322 64.094 
956 1 48.244 41.3764 64.1166 
954 1 49.6288 42.1636 61.6657 
955 1 49.5961 43.9234 64.0188 
957 1 32.6412 47.2376 61.7156 
959 1 34.01 44.7399 61.771 
960 1 35.2549 47.2 61.6405 
962 1 33.8667 46.2793 64.0573 
963 1 36.7447 44.7416 61.808 
964 1 38.1512 47.2151 61.7057 
966 1 36.707 46.2815 64.0907 
967 1 39.5913 44.7145 61.7527 
970 1 39.5651 46.295 64.1169 
971 1 42.4889 44.6772 61.7171 
974 1 42.4148 46.2676 64.0551 
975 1 45.309 44.6914 61.6769 
978 1 45.2935 46.3119 64.0536 
979 1 48.1589 44.6836 61.6697 
982 1 48.1593 46.3733 64.0306 
958 1 32.5848 48.7578 64.063 
983 1 33.7389 49.6976 61.539 
961 1 35.2354 48.802 64.0423 
984 1 36.6409 49.6127 61.6688 
965 1 38.1096 48.7977 64.1019 
968 1 40.9897 47.1542 61.7097 
985 1 39.5494 49.6135 61.7158 
969 1 40.9627 48.7562 64.0654 
972 1 43.8636 47.186 61.6746 
986 1 42.391 49.6721 61.6585 
973 1 43.8568 48.7624 64.0382 
976 1 46.7379 47.1482 61.6963 
987 1 45.3323 49.578 61.6417 
977 1 46.6454 48.8403 64.0562 
988 1 48.1903 49.6008 61.6789 
980 1 49.585 47.1558 61.6832 
981 1 49.5678 48.8236 64.0733 
992 1 49.6786 32.4783 66.4155 
990 1 47.0837 32.4928 66.3628 
999 1 42.7419 34.727 66.5234 
1003 1 45.4673 34.6642 66.3944 
1007 1 48.2882 34.791 66.3569 
994 1 38.4665 37.3952 66.5752 
996 1 41.1258 37.0246 66.5183 
1000 1 43.9456 37.1265 66.4456 
1004 1 46.8139 37.2075 66.4207 
1008 1 49.6512 37.2709 66.351 
1013 1 36.9714 39.7992 66.5855 
1017 1 39.7221 39.6534 66.4811 
1021 1 42.5115 39.5689 66.4543 
1025 1 45.3301 39.6463 66.4559 