LAMMPS (16 Feb 2016)
WARNING: OMP_NUM_THREADS environment is not set. (../comm.cpp:90)
  using 1 OpenMP thread(s) per MPI task

# Deforming a Nanowire.
# Suman Kandel, Dr. Mark A. Tschopp, 2011.

# ------------------------ INITIALIZATION ----------------------------
units        metal
boundary     p p p

atom_style   atomic


# ----------------------- ATOM DEFINITION ----------------------------
lattice hcp 3.20
Lattice spacing in x,y,z = 3.2 5.54256 5.22558
region whole block 0  100 0 100 0 100 units box
create_box 1 whole
Created orthogonal box = (0 0 0) to (100 100 100)
  2 by 2 by 7 MPI processor grid
region LLF cylinder z  50 50 20  INF INF  units box
lattice hcp 3.20 orient x 1 0 0 orient y 0 1 0 orient z 0 0 1
Lattice spacing in x,y,z = 3.2 5.54256 5.22558
create_atoms 1 region LLF
Created 5538 atoms
#delete_atoms overlap 0.5 all all

# ------------------------ FORCE FIELDS ------------------------------
pair_style   eam
pair_coeff   * * Au_u3.eam
Reading potential file Au_u3.eam with DATE: 2007-06-11

# ------------------------- SETTINGS ---------------------------------
#### Computes Required
compute csym all centro/atom 12
compute 2 all stress/atom NULL
compute mytemp all temp
compute 11 all reduce sum c_2[1]
compute 12 all reduce sum c_2[2]
compute 13 all reduce sum c_2[3]
compute 14 all reduce sum c_2[4]
compute 15 all reduce sum c_2[5]
compute 16 all reduce sum c_2[6]

neighbor     0.3 bin
neigh_modify delay 10
thermo 100
velocity all create 100.0 16723
thermo_style custom step temp etotal press pxx pyy pzz lx ly lz
shell mkdir dump
WARNING: Shell command 'mkdir' failed with error 'File exists' (../input.cpp:1126)
shell cd dump

#---------------Energy Equilibriation--------------------------
reset_timestep 0
fix 1 all nve
fix 2 all temp/rescale 10 100.0 100.0 1.0 0.5
dump 1 all custom 10000 dump.equilibrate.* id type x y z

run 10000
Neighbor list info ...
  2 neighbor list requests
  update every 1 steps, delay 10 steps, check yes
  max neighbors/atom: 2000, page size: 100000
  master list distance cutoff = 5.85
  ghost atom cutoff = 5.85
  binsize = 2.925 -> bins = 35 35 35
Memory usage per processor = 4.77607 Mbytes
Step Temp TotEng Press Pxx Pyy Pzz Lx Ly Lz
       0          100     29858.65    49437.481   -23602.927    -23694.16    195609.53          100          100          100
     100    718.57761   -17202.374   -19451.128   -21059.231   -21133.352     -16160.8          100          100          100
     200    176.67849   -18373.804   -20873.159   -21106.113   -21177.415   -20335.948          100          100          100
     300    138.55024   -18730.647   -18648.983   -18425.404   -18489.806   -19031.739          100          100          100
     400    139.28302   -19025.676   -17846.327   -17558.717    -17597.65   -18382.614          100          100          100
     500    133.62016   -19278.716   -16452.084   -16075.809   -16091.549   -17188.894          100          100          100
     600    129.07976   -19503.333   -14350.304   -13810.835   -13821.628   -15418.449          100          100          100
     700    124.37442   -19692.088    -12463.84   -11802.129   -11813.409   -13775.981          100          100          100
     800    121.48432   -19854.082   -11052.622   -10281.993   -10289.119   -12586.756          100          100          100
     900    119.33217   -19999.434   -9944.9704   -9059.0067   -9063.3557   -11712.549          100          100          100
    1000    117.23507   -20129.436   -8972.2918   -7976.9359   -7989.4865   -10950.453          100          100          100
    1100    115.07737   -20244.354   -7995.8355   -6880.1818      -6901.9   -10205.425          100          100          100
    1200    113.01401   -20344.085   -7005.8691    -5761.698   -5781.1289   -9474.7805          100          100          100
    1300    111.13137   -20429.639    -6051.426   -4685.5066   -4691.8468   -8776.9247          100          100          100
    1400      109.209   -20501.905   -5128.8936   -3648.4243   -3636.9117   -8101.3448          100          100          100
    1500    107.70651   -20561.364   -4258.4031   -2660.8654   -2644.0014   -7470.3425          100          100          100
    1600    106.41514   -20611.508   -3466.5818   -1741.9966   -1740.7386   -6917.0102          100          100          100
    1700    105.19008   -20652.262    -2716.323   -852.56728    -871.6635   -6424.7381          100          100          100
    1800    102.98973    -20682.31   -1969.8992    43.099353     15.16965   -5967.9665          100          100          100
    1900    101.07617   -20695.487   -1178.7726    990.36211    953.19332   -5479.8732          100          100          100
    2000    100.62953   -20698.504   -409.75438    1881.3846     1832.187   -4942.8347          100          100          100
    2100    100.78337   -20701.248    193.08733    2543.9367     2506.346   -4471.0207          100          100          100
    2200    102.28514   -20712.436    412.44757    2743.7996     2724.098   -4230.5549          100          100          100
    2300    102.97113   -20731.794    116.26152    2317.9812    2320.8267   -4290.0233          100          100          100
    2400    102.82975   -20753.682   -625.32058    1379.8014    1407.0173   -4662.7805          100          100          100
    2500    102.12692   -20770.873   -1399.2196    414.39164    453.40453   -5065.4549          100          100          100
    2600    101.57894   -20783.927   -1920.8698   -259.24339   -233.75932   -5269.6067          100          100          100
    2700    101.08813    -20793.12     -2257.23   -720.35932   -723.48966    -5327.841          100          100          100
    2800     101.2713   -20801.228   -2489.3708   -1074.7126    -1095.029   -5298.3709          100          100          100
    2900    101.79977   -20812.776   -2542.5417    -1234.299   -1265.3741   -5127.9522          100          100          100
    3000    101.88499   -20825.901   -2330.9705   -1108.9248   -1148.4802   -4735.5063          100          100          100
    3100    101.88809   -20839.578   -1945.3808    -788.4845   -834.53991   -4213.1181          100          100          100
    3200    101.71154   -20852.404   -1457.7076   -350.19303   -395.94453   -3626.9854          100          100          100
    3300    101.17351   -20862.905   -873.62086    201.98939    148.58052   -2971.4325          100          100          100
    3400    100.85532   -20869.756   -270.14416    779.30711    706.88306   -2296.6227          100          100          100
    3500    100.79735   -20875.501    175.49659    1177.5515    1093.1644   -1744.2262          100          100          100
    3600    100.98131   -20881.787    364.12452    1283.1701    1203.6465   -1394.4431          100          100          100
    3700    101.16051   -20889.566    294.18572    1110.5334    1027.8087    -1255.785          100          100          100
    3800    101.20575   -20898.363     65.20236    768.61535    682.86788   -1255.8761          100          100          100
    3900     100.9829   -20906.089   -175.88214    416.96367    335.46253   -1280.0726          100          100          100
    4000    100.59534   -20911.604   -407.38597    80.028944    1.7082742   -1303.8951          100          100          100
    4100    100.68752   -20915.228   -683.55347   -321.00331   -372.33384   -1357.3233          100          100          100
    4200    100.78106   -20917.324   -935.93541   -706.67483   -719.22563   -1381.9058          100          100          100
    4300    100.81424   -20918.921   -1030.4818   -920.21531    -901.6476   -1269.5826          100          100          100
    4400    100.86409   -20920.081    -939.0825   -928.85986   -887.27913   -1001.1085          100          100          100
    4500    100.94796    -20923.04   -723.00409   -792.13628   -740.20208   -636.67391          100          100          100
    4600     100.5123   -20925.579   -351.41019   -491.70709   -424.84359    -137.6799          100          100          100
    4700     100.7167    -20925.96    125.66728   -72.853162   -4.1595533    454.01456          100          100          100
    4800    99.456856   -20925.097    604.39503    340.70374    425.21942    1047.2619          100          100          100
    4900    99.454102    -20921.66    987.85065    647.02747    749.84185    1566.6826          100          100          100
    5000    99.455895   -20917.813    1253.1487    832.22676    935.00329    1992.2161          100          100          100
    5100    99.399721    -20913.76     1439.666    932.15984    1023.0716    2363.7666          100          100          100
    5200    99.464362   -20909.704    1505.7367    901.02588    979.92003    2636.2642          100          100          100
    5300    99.203181   -20907.354    1420.4523     708.7434    783.56232    2769.0511          100          100          100
    5400    99.477333    -20904.37    1186.6874    361.38424    445.95827    2752.7196          100          100          100
    5500    99.044577    -20899.29    839.57676    -98.27964    7.7967987    2609.2131          100          100          100
    5600    98.805571   -20891.557     474.2371   -556.47086   -450.61368    2429.7958          100          100          100
    5700    98.748694   -20882.575    160.77868   -928.35138     -870.109    2280.7964          100          100          100
    5800    98.640893   -20873.256   -71.506829   -1200.1853    -1204.033    2189.6978          100          100          100
    5900     98.78281   -20864.011   -158.67187   -1336.6721   -1375.2527    2235.9092          100          100          100
    6000    98.859429   -20855.326   -46.413395   -1297.0511   -1317.6201     2475.431          100          100          100
    6100    99.014285   -20848.235    268.50847   -1054.6783   -1027.1424    2887.3462          100          100          100
    6200    99.122448   -20841.196    732.74062   -637.98285   -597.25621    3433.4609          100          100          100
    6300    99.110563   -20835.286    1195.8504   -198.59707   -181.85205    3968.0002          100          100          100
    6400    98.683377   -20827.014     1628.297    226.87761    198.69551    4459.3178          100          100          100
    6500    98.535514   -20816.924    2027.0505    603.22936    573.82113    4904.1011          100          100          100
    6600    98.803195   -20807.231     2332.176    879.51083    877.67148    5239.3457          100          100          100
    6700    99.204276   -20800.925    2459.6552    987.45246    1011.1716    5380.3414          100          100          100
    6800    99.176508   -20797.514    2394.1261    931.88066    941.55587    5308.9418          100          100          100
    6900    99.126642   -20797.514    2109.2916     671.8372    647.87269     5008.165          100          100          100
    7000    99.721384   -20797.514    1657.0295    221.94312    210.47178    4538.6736          100          100          100
    7100    100.42078   -20797.875    1136.5444   -309.47367    -280.9006    4000.0076          100          100          100
    7200    100.67438   -20798.793     718.7749   -728.12401    -694.4685    3578.9172          100          100          100
    7300    100.58668   -20802.817    395.50243   -1028.1529   -1024.2625    3238.9227          100          100          100
    7400    100.61635   -20805.794    200.85575   -1177.7721   -1231.0886    3011.4279          100          100          100
    7500    101.24632    -20812.37     171.4703   -1158.3152   -1256.0998    2928.8259          100          100          100
    7600    101.39767   -20822.929    275.41542   -1030.5328   -1107.5975    2964.3766          100          100          100
    7700    101.64149   -20832.813    488.27655   -787.56709   -848.73223     3101.129          100          100          100
    7800    101.51284   -20844.541    751.49182   -464.44155   -552.57783    3271.4948          100          100          100
    7900    101.35333   -20854.885    1003.8509   -138.90019   -262.19612     3412.649          100          100          100
    8000    101.15907   -20863.904    1258.0283    193.15169    40.152506    3540.7807          100          100          100
    8100    101.02269    -20871.09    1499.3009     499.8003    351.20297    3646.8995          100          100          100
    8200    100.69364   -20877.458    1601.8458    671.25925    524.06079    3610.2173          100          100          100
    8300    100.95597    -20883.39    1564.2093    709.99354    551.54083    3431.0934          100          100          100
    8400     100.9223   -20890.331    1409.9647    639.10891     471.6174    3119.1677          100          100          100
    8500    100.97398   -20897.057    1111.9755    411.66343    259.07996     2665.183          100          100          100
    8600     100.7679   -20903.334    767.96955    140.87047    4.8666597    2158.1715          100          100          100
    8700    100.98924   -20907.297    430.20847   -121.31947   -238.17944    1650.1243          100          100          100
    8800    100.94208   -20910.721     96.44912   -377.39401   -481.79226    1148.5336          100          100          100
    8900    100.65279   -20913.347   -129.20813   -510.06104   -624.27689    746.71356          100          100          100
    9000    100.55728   -20915.804   -257.49353   -546.18014   -666.13617    439.83572          100          100          100
    9100    100.66495   -20918.375   -337.36878   -533.44961   -651.19796    172.54124          100          100          100
    9200     100.5089   -20920.909   -351.05264   -449.89267    -553.2782   -49.987058          100          100          100
    9300    100.60526   -20923.527   -280.69711   -286.10176   -369.23338    -186.7562          100          100          100
    9400    100.66826   -20925.067   -96.724275   -9.8034804   -74.208021   -206.16132          100          100          100
    9500    100.86182   -20925.067     118.3734    293.81902    255.04464   -193.74345          100          100          100
    9600    99.176356   -20925.067    296.03043    561.18371    542.14445   -215.23685          100          100          100
    9700     99.04647   -20922.836    442.35667    789.05342    795.00023   -256.98365          100          100          100
    9800    99.444891     -20919.1    461.90121    867.58862    920.86885   -402.75385          100          100          100
    9900    99.032541   -20915.895    306.62752    751.21269    850.90508   -682.23521          100          100          100
   10000    99.164161   -20913.801    38.709018    514.07254    651.96254    -1049.908          100          100          100
Loop time of 3.43829 on 28 procs for 10000 steps with 5538 atoms

Performance: 251.288 ns/day, 0.096 hours/ns, 2908.426 timesteps/s
99.8% CPU use with 28 MPI tasks x 1 OpenMP threads

MPI task timing breakdown:
Section |  min time  |  avg time  |  max time  |%varavg| %total
---------------------------------------------------------------
Pair    | 1.9801     | 2.6074     | 3.0081     |  17.1 | 75.83
Neigh   | 0.029714   | 0.04887    | 0.062159   |   4.0 |  1.42
Comm    | 0.23638    | 0.62025    | 1.2354     |  33.6 | 18.04
Output  | 0.0097082  | 0.0097882  | 0.010653   |   0.2 |  0.28
Modify  | 0.036689   | 0.042081   | 0.046908   |   1.4 |  1.22
Other   |            | 0.1099     |            |       |  3.20

Nlocal:    197.786 ave 230 max 131 min
Histogram: 2 1 1 1 1 2 3 7 5 5
Nghost:    502.464 ave 566 max 367 min
Histogram: 3 1 3 1 0 0 0 3 9 8
Neighs:    4677 ave 5923 max 2569 min
Histogram: 4 0 0 0 2 5 4 3 6 4
FullNghs:  0 ave 0 max 0 min
Histogram: 28 0 0 0 0 0 0 0 0 0

Total # of neighbors = 130956
Ave neighs/atom = 23.6468
Neighbor list builds = 292
Dangerous builds = 8
unfix 1
unfix 2

#-----------------Pressure Equilibriation-----------------------
fix 1 all npt temp 100.0 100.0 10.0 aniso 0.0 0.0 10 drag 0.3
run 10000
Memory usage per processor = 4.77615 Mbytes
Step Temp TotEng Press Pxx Pyy Pzz Lx Ly Lz
   10000    99.164161   -20913.801    38.709018    514.07254    651.96254    -1049.908          100          100          100
   10100    94.928716   -20914.583   -274.40631    198.49969    375.48239    -1397.201    100.02695    100.03684    99.923319
   10200    91.131811     -20917.1   -498.82076   -73.653174    117.26212   -1540.0712    100.07961    100.12189    99.669711
   10300    87.947402   -20921.055   -517.98871   -161.39131   0.84093418   -1393.4158    100.12193     100.2182    99.243007
   10400    84.696572   -20925.056   -379.51924    -102.4062    29.374754   -1065.5263    100.14044    100.30164    98.723005
   10500    83.069213   -20927.944   -273.41281   -65.582547    41.728432   -796.38432    100.14277    100.36647    98.225852
   10600    81.494929    -20929.85   -274.94248   -117.08225   -25.879849   -681.86534     100.1365    100.41366    97.809022
   10700    81.215553   -20931.323   -300.95707   -179.35667   -71.857054   -651.65749    100.11932     100.4427    97.456759
   10800    79.869965   -20932.593   -255.23623   -152.32338   -30.732906   -582.65239    100.08811    100.45649    97.135817
   10900    79.417241   -20933.656   -209.96957   -112.20676   -2.5290179   -515.17293    100.04753    100.46338    96.830087
   11000    80.179391    -20934.57   -174.16786   -74.818709    13.649166   -461.33404     100.0033    100.46842    96.536046
   11100    80.288676    -20935.33   -142.41277   -51.504791    34.912151   -410.64568    99.960089    100.47409    96.255493
   11200    80.787399   -20936.007   -168.21995   -91.993685    4.8022057   -417.46836    99.919691    100.48185    95.991296
   11300    80.222617   -20936.699   -219.39221   -146.68096   -49.263335   -462.23232    99.877818    100.48815    95.741022
   11400    79.477149   -20937.448   -238.42734   -155.54917   -77.045881   -482.68696    99.829519    100.48768    95.498995
   11500    77.442341   -20938.165   -206.51286   -86.944008   -66.503391   -466.09118    99.776144    100.47919    95.262966
   11600    75.294191   -20938.832   -188.22797   -18.981715   -67.644545   -478.05765    99.725993    100.46525    95.033948
   11700    74.998165   -20939.481    -157.1388     46.74673   -40.709445    -477.4537    99.685792    100.44747    94.810265
   11800    74.292029   -20940.079   -118.11773    105.06424    7.2841068   -466.70154    99.660424    100.42988    94.591312
   11900    73.369875   -20940.704   -159.66732    74.086091   -21.720572   -531.36747    99.651543    100.41645    94.376165
   12000    71.704994   -20941.434   -190.08387    44.277708   -37.489872   -577.03944    99.652812    100.40401    94.158241
   12100    71.313531   -20942.222   -205.06706    19.520457   -43.081333   -591.64031    99.658437    100.39046    93.933835
   12200    72.366968   -20943.028    -199.1659    19.538126   -47.402519   -569.63331    99.664989    100.37542    93.703917
   12300    73.457562    -20943.76   -144.61331    62.925551    3.8268055   -500.59229    99.672674    100.35969     93.47338
   12400     78.43115   -20944.417   -164.82867    27.619742   -9.0909154   -513.01484    99.684234    100.34739    93.248712
   12500    86.684114   -20945.113   -205.23325    -21.83236    -22.50255   -571.36485    99.695758    100.33721    93.028098
   12600    96.922352   -20945.875    -232.5287   -68.283832   -31.836819   -597.46546    99.702048    100.32712    92.805724
   12700     106.3487   -20946.652   -218.04286    -56.86758   -14.055455   -583.20553    99.700034    100.31637    92.579969
   12800    115.37425   -20947.367   -131.85737    48.863478    79.192503    -523.6281    99.693668    100.30775    92.354056
   12900    127.26383   -20948.004   -80.536476    120.21392    124.49103   -486.31437    99.693772    100.30923    92.133416
   13000    133.67625   -20948.539    1.1311643     203.6149    168.32667   -368.54808    99.706742    100.32353    91.921879
   13100    134.99979   -20948.915    104.78124    288.00788    234.75324   -208.41738    99.738181    100.35257    91.728115
   13200    135.48312   -20949.174      95.1074    234.24794    185.17273   -134.09846     99.79086    100.39818    91.561246
   13300    135.93282   -20949.362   -8.7830918    77.451642    61.454357   -165.25527    99.854407    100.45158    91.420221
   13400    133.60478   -20949.469   -91.075112   -51.310079   -55.737618   -166.17764    99.911518    100.49893    91.295991
   13500    128.32267   -20949.509    -110.1949     -108.212   -117.66857   -104.70414    99.951094    100.53025    91.184046
   13600    121.80206    -20949.51   -62.079911   -83.106689   -96.254572   -6.8784714    99.971687    100.54324    91.086381
   13700    116.27708    -20949.48    2.0423657   -42.557899   -33.745683    82.430679    99.979248    100.54355    91.007792
   13800     111.7578    -20949.43    59.909122   -16.799269    36.588358    159.93828    99.980575    100.54027    90.952561
   13900    109.33982   -20949.395    47.869487   -49.065432    35.577736    157.09616    99.979426    100.54117     90.92269
   14000    104.79621   -20949.388   -30.655946   -134.01255   -55.845284    97.889995    99.972562     100.5448    90.913189
   14100    105.41253   -20949.409   -105.70601   -188.43185   -141.38979    12.703624     99.95226    100.54151    90.914479
   14200     104.3435   -20949.462   -106.78614   -163.28734   -175.23326    18.162169    99.915322     100.5236      90.9178
   14300    100.79369   -20949.534   -72.434752   -116.27432   -161.09916    60.069227    99.866492     100.4896    90.922833
   14400    101.68595   -20949.609   -25.097011   -80.809708   -111.30414    116.82281     99.81191    100.44309    90.933255
   14500     104.8199    -20949.66    68.079938    8.1636676  -0.84354176    196.91969    99.757014    100.39167     90.95404
   14600    104.99169   -20949.691    113.35702    59.710273    60.311494    220.04929    99.710947    100.34747    90.991482
   14700    109.52994   -20949.732     55.51456    29.726288    17.748613    119.06878    99.677038    100.31518    91.044384
   14800    114.88116   -20949.762    43.035659    50.106228    6.1274624    72.873285    99.651742    100.28958    91.102355
   14900     125.0134   -20949.777   -38.465861   -16.827904    -62.66982   -35.899858    99.634417    100.26741    91.158912
   15000     127.2113   -20949.781   -87.272858   -55.079516   -91.448439   -115.29062    99.618237    100.24196    91.204658
   15100    131.45846   -20949.792   -56.693144   -45.555175   -13.664085   -110.86017    99.598339     100.2107    91.233148
   15200    133.43326   -20949.806   -28.390119   -39.888645    43.329723   -88.611435    99.575893    100.18163    91.246735
   15300    133.14959   -20949.828    10.562053   -17.750717    100.98521   -51.548338    99.552138    100.16134    91.249833
   15400    134.44803   -20949.855    66.899188    48.776435    146.71363     5.207498    99.529815    100.15464    91.247389
   15500    135.35919   -20949.896    44.645056    29.910296    107.87493   -3.8500596    99.514784    100.16441     91.24529
   15600    132.23942   -20949.949    35.884135    16.723603    91.704626  -0.77582253    99.505249    100.18558    91.243433
   15700    131.59405   -20950.012    13.126049   -16.848834    79.744319   -23.517338    99.498016    100.21421    91.241111
   15800    125.42022   -20950.079   -11.138109   -34.427898    64.779342    -63.76577    99.490111    100.24877    91.236688
   15900    117.73375   -20950.149   -13.663663   -18.683595    47.761259   -70.068651    99.479658    100.28683    91.226551
   16000     115.1803   -20950.213   -32.236592   -13.698631   -4.0510346   -78.960109    99.467742    100.32526    91.209954
   16100    109.35784   -20950.268   -23.604279    20.155546   -29.767946   -61.200437    99.456324    100.35972    91.187654
   16200    103.60563   -20950.316   -41.148733    6.5319782   -79.889896   -50.088281    99.447879    100.38677    91.161388
   16300    98.598686   -20950.358   -33.645645     8.006746    -93.15004   -15.793641    99.441075    100.40214    91.132874
   16400    97.576564   -20950.395   -16.026581    16.206353   -91.495281    27.209184    99.435932    100.40553    91.105851
   16500    100.50398   -20950.431    0.8943558    2.8138973   -83.363608    83.232779    99.432974    100.39828    91.084639
   16600    103.68944   -20950.468      26.1736   -8.7851662   -47.074064    134.38003    99.430731    100.38277    91.074187
   16700    108.37284   -20950.517    13.894261   -37.693885   -42.827117    122.20379    99.427425    100.36306    91.077912
   16800    112.37647   -20950.576   -2.2060113   -68.050173   -34.200059    95.632198    99.420162    100.34048    91.093748
   16900      117.015   -20950.643   -24.969765   -86.592592   -40.920504    52.603801    99.406008    100.31599     91.11768
   17000    121.83023   -20950.712   -36.871222   -80.482401   -42.558596    12.427332    99.383622     100.2892    91.144698
   17100    125.72554   -20950.776     5.428328   -18.680266    15.914067    19.051183     99.35508    100.26091    91.171067
   17200    129.32771   -20950.829     15.04366    3.3298456    47.296243   -5.4951099    99.326615    100.23663     91.19642
   17300     135.2899   -20950.881    11.465996    3.5950341    67.023922   -36.220969     99.30074     100.2197    91.218616
   17400    133.46833   -20950.935    63.561309     80.63885    121.30797   -11.262892    99.278983    100.21284    91.235975
   17500    134.41339       -20951    -10.35724    22.742636    31.364144   -85.178501    99.266585    100.21862    91.249424
   17600    133.33908    -20951.07   -50.071415  -0.95884745   -31.056621   -118.19878    99.258134    100.22758    91.253088
   17700    131.47141   -20951.148    14.459553    73.494131    17.027114   -47.142586     99.25143    100.23345    91.245311
   17800    126.07533   -20951.229    54.896464    116.59074    51.182522   -3.0838667    99.253367    100.24061    91.233075
   17900    120.41405   -20951.318    65.907068    110.86329    76.720046    10.137864    99.267799    100.25302    91.221332
   18000    117.01367   -20951.411    33.518686    82.832579    34.780555   -17.057075    99.293403    100.27234    91.211279
   18100    112.41276   -20951.493   -33.167732    26.815625   -52.912451   -73.406371    99.325848    100.29355    91.199907
   18200     108.5915   -20951.563   -104.16756   -41.577257   -149.93259   -120.99285    99.358463    100.30664    91.181857
   18300    105.31404   -20951.639   -98.629037   -65.117722   -137.21369   -93.555702    99.384206    100.30278    91.153526
   18400    106.91128   -20951.718   -44.823887   -34.934912   -82.654786   -16.881965    99.400827    100.28376    91.118186
   18500    104.97296   -20951.777    7.3818351   -8.2381153   -25.101018    55.484638    99.412231     100.2571    91.084144
   18600    106.32193   -20951.823    22.116944    -5.805031   -6.6197861    78.775648    99.421506    100.22931    91.058171
   18700    108.83624   -20951.869    49.208362     25.76388    16.580023    105.28118    99.429749    100.20306    91.042599
   18800    112.03739    -20951.92    36.585531    10.116808    15.891985    83.747799    99.439649     100.1805    91.038632
   18900    115.68072   -20951.977     20.38526   -24.799111    13.997835    71.957058    99.449855    100.16173    91.043953
   19000    119.06953   -20952.037   -10.078721   -77.899221  -0.35776566    48.020822    99.456207    100.14582    91.056099
   19100    123.52756   -20952.103   -36.556743   -117.61033   -19.446154    27.386252    99.453237    100.13088    91.072216
   19200    124.33282   -20952.179   -2.8203938   -79.106658    12.486696    58.158781    99.438262    100.11582    91.090722
   19300    128.66287   -20952.261   -17.357629   -82.964294   -7.6076238     38.49903     99.41479    100.10251    91.113208
   19400    133.29743   -20952.351    -26.41249   -89.294543   -2.4996163    12.556688    99.383578    100.08954    91.137883
   19500    134.22795   -20952.441    39.686022   -22.798129    82.376758    59.479438    99.345607    100.07838    91.162908
   19600    134.49005   -20952.528    66.311254    34.515801     107.1405    57.277458    99.307822    100.07681    91.191639
   19700    133.86167   -20952.613    53.083664    56.450248    75.472477    27.328268    99.276217    100.08675    91.223763
   19800     129.8835   -20952.696    45.611074    76.019843     69.40166   -8.5882815    99.253625    100.10501     91.25629
   19900    125.15805   -20952.771    3.4410112     55.93973      30.0407   -75.657396    99.240848    100.12933    91.285123
   20000    119.45234   -20952.838   -26.493277    41.455701    3.9411757   -124.87671    99.235394    100.15526    91.303917
Loop time of 3.66657 on 28 procs for 10000 steps with 5538 atoms

Performance: 235.643 ns/day, 0.102 hours/ns, 2727.345 timesteps/s
99.8% CPU use with 28 MPI tasks x 1 OpenMP threads

MPI task timing breakdown:
Section |  min time  |  avg time  |  max time  |%varavg| %total
---------------------------------------------------------------
Pair    | 2.4121     | 2.687      | 2.9951     |   9.1 | 73.28
Neigh   | 0.045979   | 0.054309   | 0.065316   |   2.3 |  1.48
Comm    | 0.23511    | 0.53955    | 0.82529    |  21.6 | 14.72
Output  | 0.067456   | 0.067527   | 0.068403   |   0.1 |  1.84
Modify  | 0.20431    | 0.28031    | 0.38613    |   9.5 |  7.65
Other   |            | 0.03788    |            |       |  1.03

Nlocal:    197.786 ave 229 max 164 min
Histogram: 2 2 3 3 2 3 6 1 3 3
Nghost:    528.536 ave 588 max 455 min
Histogram: 4 3 3 2 0 0 3 1 7 5
Neighs:    4667.79 ave 5748 max 3747 min
Histogram: 3 3 2 4 3 6 1 2 2 2
FullNghs:  0 ave 0 max 0 min
Histogram: 28 0 0 0 0 0 0 0 0 0

Total # of neighbors = 130698
Ave neighs/atom = 23.6002
Neighbor list builds = 303
Dangerous builds = 0
unfix 1
undump 1
shell cd ..
shell mkdir deform
WARNING: Shell command 'mkdir' failed with error 'File exists' (../input.cpp:1126)
shell cd deform

#--------------------Storing Initial length---------------------
variable tmp equal "lz"
variable L0 equal ${tmp}
variable L0 equal 91.3039170421613
print "Initial Length, L0: ${L0}"
Initial Length, L0: 91.3039170421613
variable strain equal "v_srate/1e12"

#------------Deform------------------------------
reset_timestep 0
fix 1 all deform 1 z erate 0.0001 units box
fix 2 all nvt temp 100.0 100.0 10.0

variable strain equal "(lz - v_L0)/v_L0"
variable p1 equal "v_strain"
variable p2 equal "-pxx/10000"
variable p3 equal "-pyy/10000"
variable p4 equal "-pzz/10000"
variable p5 equal "lx"
variable p6 equal "ly"
variable p7 equal "lz"
variable p8 equal "temp"
variable p9 equal "pe"
variable p10 equal "ke"
variable p11 equal "-pxy/10000"
variable p13 equal "-pyz/10000"
variable p12 equal "-pxz/10000"
variable fm equal "(v_p2+v_p3+v_p4)/3" ##### Hydrostatic stress

variable fv equal "sqrt((v_p2-v_p3)^2+(v_p3-v_p4)^2+(v_p4-v_p2)^2+6*(v_p11^2+v_p12^2+v_p13^2)/2)" ######Von Mises Stress

variable t equal "v_fm/v_fv"
variable fd equal (((v_p2-v_fm)*(v_p3-v_fm)*(v_p4-v_fm))-v_p11^2*(v_p4-v_fm)-v_p12^2*(v_p3-v_fm)-v_p13^2*(v_p2-v_fm)+2*v_p11*v_p12*v_p13)####Deviatoric Von Mises stress

dump 2 all custom 10000 dump.defo.* id type x y z c_csym c_2[1] c_2[2] c_2[3] c_2[4] c_2[5] c_2[6]
dump            3 all xyz 10000 Au_*.xyz
dump            4 all dcd 10000 Au.dcd

fix def_print all print 100 "${p1} ${p2} ${p3} ${p4} ${p5} ${p6} ${p7} ${p8} ${p9} ${p10} ${p11} ${p12} ${p13} ${fm} ${fv} ${t} ${fd}" file mg001.defo.txt screen no
run 100000
Memory usage per processor = 6.79176 Mbytes
Step Temp TotEng Press Pxx Pyy Pzz Lx Ly Lz
       0    119.45234   -20952.838   -26.493277    41.455701    3.9411757   -124.87671    99.235394    100.15526    91.303917
     100    113.56597   -20952.838   -3.2615862      62.2632    41.957689   -114.00565    99.235394    100.15526     91.30483
     200    106.84498    -20952.84   -4.0987706    66.119015    42.235422   -120.65075    99.235394    100.15526    91.305743
     300    105.65757   -20952.844   -14.851142    53.001438    25.240322   -122.79519    99.235394    100.15526    91.306656
     400    103.04902   -20952.847   -62.861862    11.237138   -38.152125    -161.6706    99.235394    100.15526    91.307569
     500    104.68141   -20952.852   -110.77475   -33.653475    -93.81943   -204.85133    99.235394    100.15526    91.308482
     600    103.94801   -20952.856   -77.608474   -7.3253983   -53.016573   -172.48345    99.235394    100.15526    91.309395
     700    105.08004   -20952.862   -136.23844   -84.851159   -102.39341   -221.47075    99.235394    100.15526    91.310308
     800    110.77848   -20952.868   -209.84708   -166.29087   -176.63678   -286.61359    99.235394    100.15526    91.311221
     900    112.01702   -20952.876   -178.86213   -131.04851   -149.95026   -255.58763    99.235394    100.15526    91.312134
    1000    114.97757   -20952.886   -164.19473   -117.98617   -132.78473    -241.8133    99.235394    100.15526    91.313047
    1100    119.81142   -20952.899   -150.85316   -95.935737   -118.92188   -237.70187    99.235394    100.15526     91.31396
    1200    122.55951   -20952.916   -91.093529    -31.93537   -54.035141   -187.31007    99.235394    100.15526    91.314874
    1300     125.8797   -20952.938   -10.675099    55.974735    37.738603   -125.73863    99.235394    100.15526    91.315787
    1400    129.01891   -20952.966    38.065047    118.97126     80.44291    -85.21903    99.235394    100.15526      91.3167
    1500    130.74106   -20952.999    64.021834    152.80536    100.41869    -61.15855    99.235394    100.15526    91.317613
    1600    131.01858   -20953.039    111.30682    207.26918    149.39959   -22.748299    99.235394    100.15526    91.318526
    1700    131.55645   -20953.085    79.938062    165.14029    135.05117   -60.377268    99.235394    100.15526    91.319439
    1800    129.48912   -20953.136    68.076189    142.84184    139.12653   -77.739801    99.235394    100.15526    91.320352
    1900     125.9623   -20953.191    97.355143    165.48612    177.36713   -50.787819    99.235394    100.15526    91.321265
    2000    122.38878   -20953.249      48.2652    111.97135     124.0176   -91.193352    99.235394    100.15526    91.322178
    2100    118.13612   -20953.308   -2.4734534    61.265206    72.408398   -141.09396    99.235394    100.15526    91.323091
    2200    112.23046   -20953.367   -48.793465    14.107431    32.519785   -193.00761    99.235394    100.15526    91.324004
    2300    111.46621   -20953.425     -145.652   -90.531189   -56.838668   -289.58613    99.235394    100.15526    91.324917
    2400    105.70144   -20953.482   -182.94466    -128.5155   -100.96342   -319.35507    99.235394    100.15526     91.32583
    2500    103.01243   -20953.537   -249.37169   -204.77953   -165.44816   -377.88738    99.235394    100.15526    91.326743
    2600    103.60029    -20953.59   -303.27708    -255.3317   -232.60308   -421.89645    99.235394    100.15526    91.327656
    2700    102.76384   -20953.642   -293.15414   -247.54922   -220.71893   -411.19425    99.235394    100.15526    91.328569
    2800    103.37887   -20953.694   -286.43999   -240.14785   -210.60073    -408.5714    99.235394    100.15526    91.329482
    2900    109.39763   -20953.747   -257.64299   -211.55003   -168.22148   -393.15747    99.235394    100.15526    91.330395
    3000    110.80539   -20953.801   -124.64735   -83.445501   -12.194387   -278.30216    99.235394    100.15526    91.331308
    3100    116.57438   -20953.859   -45.422051    10.139739    63.230498   -209.63639    99.235394    100.15526    91.332221
    3200     119.5562   -20953.919    11.532064    82.883201    102.34234   -150.62935    99.235394    100.15526    91.333134
    3300     123.2202   -20953.983     74.34621    149.22893    154.59369   -80.783994    99.235394    100.15526    91.334047
    3400    126.48436   -20954.052    129.48318    205.56242    202.79186   -19.904751    99.235394    100.15526     91.33496
    3500    131.38284   -20954.124    130.01528     202.8579    208.43991   -21.251963    99.235394    100.15526    91.335873
    3600    132.52835   -20954.201    119.97825    204.05348    179.78555   -23.904278    99.235394    100.15526    91.336786
    3700    131.97713   -20954.282    106.17982    189.05766    163.77415   -34.292346    99.235394    100.15526    91.337699
    3800    130.48807   -20954.363    60.914978    150.58471    112.04824   -79.888013    99.235394    100.15526    91.338613
    3900    127.33856   -20954.445      -14.948    71.914205    38.120104   -154.87831    99.235394    100.15526    91.339526
    4000    122.33494   -20954.524   -88.839158   -3.4577495   -38.650402   -224.40932    99.235394    100.15526    91.340439
    4100    118.30142     -20954.6   -122.72751   -25.051496   -79.844745   -263.28628    99.235394    100.15526    91.341352
    4200    114.21885   -20954.673   -118.43877   -16.645998   -73.326951   -265.34335    99.235394    100.15526    91.342265
    4300    112.11632   -20954.741   -153.38778    -52.81245   -98.672438   -308.67844    99.235394    100.15526    91.343178
    4400    107.31439   -20954.805   -187.02817    -108.2479   -117.45097   -335.38565    99.235394    100.15526    91.344091
    4500    105.20617   -20954.864   -212.96503    -148.4947   -141.03579   -349.36458    99.235394    100.15526    91.345004
    4600    103.19634   -20954.919   -254.88743   -208.36898   -183.27469   -373.01863    99.235394    100.15526    91.345917
    4700    103.55096   -20954.971   -279.23107   -236.79814   -218.10413   -382.79094    99.235394    100.15526     91.34683
    4800    103.11925    -20955.02   -209.53496   -160.12058   -137.81056   -330.67374    99.235394    100.15526    91.347743
    4900    105.92674   -20955.067   -148.58933   -101.19159   -67.881439   -276.69496    99.235394    100.15526    91.348656
    5000    109.94054   -20955.114   -104.31308    -53.46346   -25.505173   -233.97061    99.235394    100.15526    91.349569
    5100    112.96611   -20955.162    4.7344747    53.223367    87.490812   -126.51075    99.235394    100.15526    91.350482
    5200    117.77215   -20955.211    45.373477    94.031899    135.53313   -93.444599    99.235394    100.15526    91.351395
    5300    120.41241   -20955.262    56.522473    135.83762    118.52132   -84.791516    99.235394    100.15526    91.352308
    5400    125.40615   -20955.316    78.395977    186.94979    113.44467   -65.206537    99.235394    100.15526    91.353221
    5500    127.32979   -20955.373    82.016044    189.64302    112.65547   -56.250361    99.235394    100.15526    91.354134
    5600    129.35666   -20955.432    61.380409    162.58557    92.676828   -71.121171    99.235394    100.15526    91.355047
    5700    129.98578   -20955.494    45.108421    138.21789    90.079715   -92.972344    99.235394    100.15526     91.35596
    5800    130.80778    -20955.56  0.076946645    86.907219    49.492034   -136.16841    99.235394    100.15526    91.356873
    5900    129.55793   -20955.627   -42.231474    54.184567     3.008473   -183.88746    99.235394    100.15526    91.357786
    6000    125.43246   -20955.695   -70.872405    28.843168   -31.547837   -209.91255    99.235394    100.15526    91.358699
    6100    122.44571   -20955.762   -125.89243   -31.007636   -84.178433   -262.49122    99.235394    100.15526    91.359612
    6200     118.0037   -20955.829    -134.5406   -47.892432   -87.271596   -268.45777    99.235394    100.15526    91.360525
    6300    112.87279   -20955.892   -91.709155   -18.586734   -18.094038   -238.44669    99.235394    100.15526    91.361439
    6400    108.83908   -20955.952   -134.32408   -82.780115   -35.595848   -284.59628    99.235394    100.15526    91.362352
    6500    105.16468    -20956.01   -176.86784   -135.59071   -65.588676   -329.42414    99.235394    100.15526    91.363265
    6600    102.26279   -20956.063   -147.81524   -98.232265   -21.110011   -324.10345    99.235394    100.15526    91.364178
    6700    100.27333   -20956.114   -159.38127   -100.40718   -31.156878   -346.57976    99.235394    100.15526    91.365091
    6800    100.74866   -20956.161   -140.71952   -79.549448   -21.746158   -320.86295    99.235394    100.15526    91.366004
    6900    105.31538    -20956.21   -77.131034   -28.123982    51.836839   -255.10596    99.235394    100.15526    91.366917
    7000    106.35499   -20956.258   -75.790086   -35.935877     61.67778   -253.11216    99.235394    100.15526     91.36783
    7100    109.21755   -20956.307   -72.041326    -50.22812    88.497394   -254.39325    99.235394    100.15526    91.368743
    7200    114.17205   -20956.357    -55.00344   -37.338148    106.80869   -234.48087    99.235394    100.15526    91.369656
    7300    115.89812    -20956.41   -109.51959   -76.549491     19.02492   -271.03421    99.235394    100.15526    91.370569
    7400    120.62211   -20956.464   -115.58274   -72.070696   -14.901047   -259.77647    99.235394    100.15526    91.371482
    7500    124.20119   -20956.523    -110.7818   -54.558361   -34.484987   -243.30205    99.235394    100.15526    91.372395
    7600    127.84876   -20956.586   -140.89827   -82.796732   -75.669988    -264.2281    99.235394    100.15526    91.373308
    7700    128.56022   -20956.654   -50.690299    16.545026    13.429632   -182.04556    99.235394    100.15526    91.374221
    7800    128.48035   -20956.725   -15.730317    57.906077    62.761995   -167.85902    99.235394    100.15526    91.375134
    7900    129.73138     -20956.8   -62.811125    11.791148    11.605373    -211.8299    99.235394    100.15526    91.376047
    8000    124.99746   -20956.877    12.020089     112.3563    76.604825   -152.90086    99.235394    100.15526     91.37696
    8100    121.38659   -20956.954    56.414819    171.31662     116.6403   -118.71246    99.235394    100.15526    91.377873
    8200    118.36892    -20957.03     17.13138    129.40898     81.48771   -159.50256    99.235394    100.15526    91.378786
    8300    113.24224   -20957.104    23.679937     131.1913    88.379353   -148.53084    99.235394    100.15526    91.379699
    8400     110.7174   -20957.176    1.6896654    109.98343     65.11375   -170.02818    99.235394    100.15526    91.380612
    8500    106.39727   -20957.245   -36.551463    78.148637     24.18025   -211.98328    99.235394    100.15526    91.381525
    8600    103.93814   -20957.311   -75.081412    64.995813   -37.480304   -252.75975    99.235394    100.15526    91.382438
    8700    103.86967   -20957.374   -150.56116   -14.174088   -132.19828   -305.31112    99.235394    100.15526    91.383351
    8800    102.96004   -20957.435   -200.45403   -78.176342   -185.92292   -337.26285    99.235394    100.15526    91.384264
    8900    102.80444   -20957.494   -198.66151   -105.97101   -151.16784   -338.84568    99.235394    100.15526    91.385178
    9000     106.2545   -20957.553   -237.68885   -169.41474   -156.45302   -387.19879    99.235394    100.15526    91.386091
    9100    108.13262   -20957.612   -265.70695   -202.31021   -165.47971   -429.33093    99.235394    100.15526    91.387004
    9200    110.22468   -20957.671   -244.82453   -169.87708   -165.42876   -399.16774    99.235394    100.15526    91.387917
    9300    112.80196   -20957.733   -231.34847   -133.56732   -171.09868    -389.3794    99.235394    100.15526     91.38883
    9400    117.92239   -20957.796   -175.12344   -78.374294   -108.52911    -338.4669    99.235394    100.15526    91.389743
    9500    120.86916   -20957.863   -85.937407   -14.242314    3.8564651   -247.42637    99.235394    100.15526    91.390656
    9600      123.778   -20957.935   -17.495933    43.801986    93.317247   -189.60703    99.235394    100.15526    91.391569
    9700      126.755    -20958.01    67.387864    124.68354    196.03451   -118.55446    99.235394    100.15526    91.392482
    9800    125.82183   -20958.089    128.99759    206.49122    259.31426    -78.81269    99.235394    100.15526    91.393395
    9900    127.35127   -20958.171    151.16184    260.91428    254.87702   -62.305792    99.235394    100.15526    91.394308
   10000    125.33958   -20958.255    170.11601    295.43408    267.82498   -52.911034    99.235394    100.15526    91.395221
   10100    121.84744    -20958.34    140.64083     240.5679    257.19016    -75.83556    99.235394    100.15526    91.396134
   10200    119.34652   -20958.424    69.661093    158.24815    188.81948   -138.08436    99.235394    100.15526    91.397047
   10300    115.02099   -20958.505   -18.938533    60.415002    97.052715   -214.28332    99.235394    100.15526     91.39796
   10400    111.45718   -20958.584    -121.6631    -39.81556   -14.851688   -310.32207    99.235394    100.15526    91.398873
   10500    107.65051   -20958.658   -251.40245   -160.59793   -167.48158   -426.12785    99.235394    100.15526    91.399786
   10600    105.54204   -20958.729   -351.34129   -238.97281   -299.67526   -515.37581    99.235394    100.15526    91.400699
   10700    102.90348   -20958.797   -371.38342   -260.19727   -329.96225   -523.99074    99.235394    100.15526    91.401612
   10800    102.51705   -20958.861   -392.08867   -293.21162   -343.42819   -539.62621    99.235394    100.15526    91.402525
   10900    101.44022   -20958.924     -351.814   -255.11562   -300.77468   -499.55171    99.235394    100.15526    91.403438
   11000    103.61183   -20958.985   -281.69106   -184.35545   -223.75577   -436.96197    99.235394    100.15526    91.404351
   11100     106.8992   -20959.047   -211.57311   -120.75628   -136.65483   -377.30824    99.235394    100.15526    91.405264
   11200    109.73588   -20959.111   -79.609983    24.109941    7.3975813   -270.33747    99.235394    100.15526    91.406177
   11300    113.62395   -20959.177    33.757414    150.56699    126.78139   -176.07614    99.235394    100.15526     91.40709
   11400    115.10951   -20959.244     137.0457    254.19867    233.94461   -77.006199    99.235394    100.15526    91.408004
   11500    119.57014   -20959.315    178.51265    290.50652    289.11272   -44.081292    99.235394    100.15526    91.408917
   11600    122.89059    -20959.39    133.25935    234.01946    257.36003   -91.601457    99.235394    100.15526     91.40983
   11700     124.6139   -20959.468    102.50012    177.68338    246.61693   -116.79994    99.235394    100.15526    91.410743
   11800    126.17463   -20959.549    85.766054    140.50222    236.15845   -119.36251    99.235394    100.15526    91.411656
   11900    126.62463   -20959.632    16.886735    81.838388    149.23013   -180.40831    99.235394    100.15526    91.412569
   12000    123.99177   -20959.718   -63.682383    5.6743573    49.962082   -246.68359    99.235394    100.15526    91.413482
   12100    120.92037   -20959.802   -159.69317   -105.92584   -45.367902   -327.78575    99.235394    100.15526    91.414395
   12200    118.29642   -20959.885   -251.22438   -216.12046   -129.43983   -408.11283    99.235394    100.15526    91.415308
   12300     114.9401   -20959.967   -310.85182   -281.78088   -180.20229   -470.57231    99.235394    100.15526    91.416221
   12400     113.4729   -20960.046   -314.35023   -290.31668   -183.85108   -468.88293    99.235394    100.15526    91.417134
   12500    109.48408   -20960.124   -231.96589   -177.64667   -114.60877   -403.64223    99.235394    100.15526    91.418047
   12600    106.99708   -20960.199   -183.07026   -106.90455   -85.467885   -356.83835    99.235394    100.15526     91.41896
   12700    103.46232    -20960.27   -128.92978   -46.783018    -27.50959   -312.49674    99.235394    100.15526    91.419873
   12800    101.18821   -20960.339   -69.914222    40.109257     17.37183   -267.22375    99.235394    100.15526    91.420786
   12900    100.80643   -20960.405   -50.272612    62.757344    39.413869   -252.98905    99.235394    100.15526    91.421699
   13000    100.38744   -20960.468    7.5322559     121.1444     104.8673   -203.41493    99.235394    100.15526    91.422612
   13100     102.2759   -20960.531    35.959093    152.92622    127.27575    -172.3247    99.235394    100.15526    91.423525
   13200    105.92326   -20960.594    22.420151    149.91362    105.61549   -188.26865    99.235394    100.15526    91.424438
   13300    108.85823   -20960.658    27.771599    148.24361    105.97563   -170.90445    99.235394    100.15526    91.425351
   13400    112.25399   -20960.723   -55.237113    80.877361    14.084018   -260.67272    99.235394    100.15526    91.426264
   13500    115.63979   -20960.791   -169.33606   -45.166797   -104.84315   -357.99824    99.235394    100.15526    91.427177
   13600    119.01376    -20960.86   -208.63207    -86.02498   -157.21782   -382.65343    99.235394    100.15526     91.42809
   13700     122.0111   -20960.933   -255.02506   -129.96872   -212.81034   -422.29611    99.235394    100.15526    91.429003
   13800    122.59188   -20961.009   -233.02319   -101.19976   -198.98119   -398.88862    99.235394    100.15526    91.429916
   13900    124.67533   -20961.087    -172.6674   -29.774186   -129.96749   -358.26052    99.235394    100.15526    91.430829
   14000    124.91997    -20961.17    -156.1947   -8.7571108   -117.83592   -341.99108    99.235394    100.15526    91.431743
   14100    121.85819   -20961.254   -104.30511    40.929937   -54.545205   -299.30007    99.235394    100.15526    91.432656
   14200    120.00299   -20961.337   -24.704455    118.40336    44.576125   -237.09285    99.235394    100.15526    91.433569
   14300    116.89886   -20961.421    41.533642    191.12892    125.45392   -191.98192    99.235394    100.15526    91.434482
   14400    113.23309   -20961.503    116.32188    265.30103    218.33617   -134.67155    99.235394    100.15526    91.435395
   14500     110.4337   -20961.583    108.68117    251.37774    224.96384   -150.29806    99.235394    100.15526    91.436308
   14600    106.84376    -20961.66    31.020941    164.57712    150.52322   -222.03752    99.235394    100.15526    91.437221
   14700    103.00487   -20961.732    8.1614121    138.56753     133.5689   -247.65219    99.235394    100.15526    91.438134
   14800    102.04823   -20961.802   -92.573444    25.298154    33.536389   -336.55488    99.235394    100.15526    91.439047
   14900    101.22256   -20961.868   -235.28975   -134.60511    -111.0276   -460.23654    99.235394    100.15526     91.43996
   15000    98.520226   -20961.931   -243.33008   -161.55995   -109.94709   -458.48321    99.235394    100.15526    91.440873
   15100    102.48887   -20961.993   -290.81444   -227.76402   -147.08782   -497.59147    99.235394    100.15526    91.441786
   15200    104.22352   -20962.055   -344.66959    -297.9095   -201.27726   -534.82202    99.235394    100.15526    91.442699
   15300    106.44428   -20962.117   -332.71913   -273.33588   -201.42027   -523.40123    99.235394    100.15526    91.443612
   15400    107.02923   -20962.179   -351.66267   -260.27963   -260.03264   -534.67575    99.235394    100.15526    91.444525
   15500    112.14138   -20962.243   -298.62163   -183.87387   -216.36249   -495.62853    99.235394    100.15526    91.445438
   15600    114.85755   -20962.309   -147.91201   -28.788548   -47.686354   -367.26113    99.235394    100.15526    91.446351
   15700    118.23935    -20962.38   -79.629389    17.631232    50.734065   -307.25346    99.235394    100.15526    91.447264
   15800    121.22208   -20962.453     6.989329    86.291291    160.08214   -225.40544    99.235394    100.15526    91.448177
   15900    122.71033   -20962.531    96.308485    177.65208    248.91875   -137.64538    99.235394    100.15526     91.44909
   16000    123.33701   -20962.612    121.98635    214.43637    258.02543   -106.50274    99.235394    100.15526    91.450003
   16100    122.79639   -20962.694    150.77184    269.13167    276.70454   -93.520692    99.235394    100.15526    91.450916
   16200    119.14508   -20962.778    147.29927    270.67979    277.53098   -106.31295    99.235394    100.15526    91.451829
   16300    118.03191   -20962.862     78.23216    195.42238    216.47342   -177.19933    99.235394    100.15526    91.452742
   16400    115.54443   -20962.944    7.7540033    80.357845    181.13919   -238.23503    99.235394    100.15526    91.453655
   16500     109.5812   -20963.023   -47.425635  -0.63184185    130.98443   -272.62949    99.235394    100.15526    91.454569
   16600    109.49019     -20963.1   -166.59136    -120.7613  -0.61473056   -378.39804    99.235394    100.15526    91.455482
   16700    105.32549   -20963.174   -250.10988   -197.14685   -106.79425   -446.38854    99.235394    100.15526    91.456395
   16800    101.13925   -20963.244   -338.05542   -265.72551   -225.64668   -522.79408    99.235394    100.15526    91.457308
   16900    100.33697    -20963.31   -400.51234   -333.79136   -283.46978   -584.27589    99.235394    100.15526    91.458221
   17000    99.931749   -20963.374   -343.54986   -294.90916   -187.96663    -547.7738    99.235394    100.15526    91.459134
   17100     99.04319   -20963.436   -299.43471   -248.14362   -136.20906   -513.95145    99.235394    100.15526    91.460047
   17200    101.40678   -20963.497   -330.39862   -246.02299   -197.11596    -548.0569    99.235394    100.15526     91.46096
   17300    103.17688   -20963.558   -221.12181   -93.387483   -113.25845   -456.71951    99.235394    100.15526    91.461873
   17400    106.34179    -20963.62   -98.451823    67.296045   -5.6784985   -356.97302    99.235394    100.15526    91.462786
   17500    109.36692   -20963.683   -47.026636    131.53292    45.319514   -317.93235    99.235394    100.15526    91.463699
   17600    110.99068   -20963.749    52.799142    223.80036    171.52574   -236.92868    99.235394    100.15526    91.464612
   17700    116.64035   -20963.817    79.288566    261.08128    187.80132   -211.01691    99.235394    100.15526    91.465525
   17800    118.18095   -20963.889    70.216658    264.63434    152.01201   -205.99639    99.235394    100.15526    91.466438
   17900    120.04855   -20963.963     71.41701     298.8886    120.82645   -205.46402    99.235394    100.15526    91.467351
   18000    122.56473   -20964.041    2.7392969    243.31492      22.9802   -258.07723    99.235394    100.15526    91.468264
   18100    121.94347   -20964.121   -59.840377    161.86622   -22.184758   -319.20259    99.235394    100.15526    91.469177
   18200    119.72119   -20964.201   -84.769402    100.74355   -25.483644   -329.56811    99.235394    100.15526     91.47009
   18300    115.49475   -20964.281   -126.79438    39.317128   -62.785289   -356.91497    99.235394    100.15526    91.471003
   18400    116.17171   -20964.361    -182.0837   -23.727236   -118.58737   -403.93649    99.235394    100.15526    91.471916
   18500    111.45942    -20964.44   -204.75515   -37.886009   -151.03922   -425.34022    99.235394    100.15526    91.472829
   18600    109.72551   -20964.515   -271.09227   -105.41198   -226.13457   -481.73026    99.235394    100.15526    91.473742
   18700     106.0837    -20964.59   -240.07601   -81.524157   -183.97943   -454.72445    99.235394    100.15526    91.474655
   18800    103.50331    -20964.66   -177.45174   -32.145866   -90.454485   -409.75487    99.235394    100.15526    91.475568
   18900      101.826   -20964.729   -183.76885   -57.020986   -75.388701   -418.89688    99.235394    100.15526    91.476481
   19000    99.013162   -20964.795   -162.32058   -39.441742   -42.911879   -404.60811    99.235394    100.15526    91.477394
   19100    100.15984   -20964.858   -117.24227   -4.2699094    24.398651   -371.85555    99.235394    100.15526    91.478308
   19200    99.340715    -20964.92   -95.800136   -1.3984772     66.81946   -352.82139    99.235394    100.15526    91.479221
   19300    101.57951   -20964.982   -103.09637   -26.132494     81.31238   -364.46898    99.235394    100.15526    91.480134
   19400    103.35731   -20965.043   -74.574277   -9.6393118    128.60498    -342.6885    99.235394    100.15526    91.481047
   19500    107.35339   -20965.105   -79.805701    -33.21663    141.55462   -347.75509    99.235394    100.15526     91.48196
   19600    110.41219   -20965.169   -85.471043   -46.842699    131.66108   -341.23151    99.235394    100.15526    91.482873
   19700    111.48024   -20965.235   -80.560571   -29.566527    123.48084   -335.59603    99.235394    100.15526    91.483786
   19800    116.51818   -20965.303   -120.08012   -59.353979    56.782483   -357.66885    99.235394    100.15526    91.484699
   19900    117.12367   -20965.373   -156.33944    -103.2015    16.195497   -382.01232    99.235394    100.15526    91.485612
   20000    117.84468   -20965.446   -201.37332   -149.96336   -29.206855   -424.94976    99.235394    100.15526    91.486525
   20100    118.82105    -20965.52   -223.12731   -167.95791   -64.695671   -436.72836    99.235394    100.15526    91.487438
   20200    118.95562   -20965.597   -169.52643   -91.389548   -14.243224   -402.94652    99.235394    100.15526    91.488351
   20300    116.24865   -20965.674   -106.45695   -20.493184    48.848385   -347.72604    99.235394    100.15526    91.489264
   20400    115.58149   -20965.752   -87.334238    7.5128549    69.644313   -339.15988    99.235394    100.15526    91.490177
   20500    111.57406   -20965.829   -24.880784    86.234498    125.94459   -286.82144    99.235394    100.15526     91.49109
   20600    109.84484   -20965.904   -12.307231    104.02652    139.66764   -280.61586    99.235394    100.15526    91.492003
   20700    107.10591   -20965.978   -26.154524    68.478371    140.50837   -287.45031    99.235394    100.15526    91.492916
   20800    105.38698    -20966.05   -49.808792    37.690352    126.47475   -313.59148    99.235394    100.15526    91.493829
   20900    100.22236   -20966.118   -41.787842    59.209629    117.67233   -302.24548    99.235394    100.15526    91.494742
   21000    98.473658   -20966.183   -66.198908    48.927433    81.633669   -329.15783    99.235394    100.15526    91.495655
   21100     99.38492   -20966.245   -153.59906   -28.647548   -22.768971   -409.38066    99.235394    100.15526    91.496568
   21200    97.873495   -20966.306   -205.64881   -100.29405   -57.814678   -458.83772    99.235394    100.15526    91.497481
   21300     99.33308   -20966.364   -261.50245   -169.51359   -102.51897   -512.47478    99.235394    100.15526    91.498394
   21400    102.07169   -20966.423   -328.14796   -234.90807   -174.29093   -575.24489    99.235394    100.15526    91.499307
   21500    104.38535   -20966.481   -289.32265   -158.86628   -170.20237   -538.89929    99.235394    100.15526     91.50022
   21600    107.80854   -20966.541   -228.48302   -58.614743   -134.98698   -491.84735    99.235394    100.15526    91.501134
   21700    108.89837   -20966.602   -244.56082   -46.898334   -181.42188   -505.36224    99.235394    100.15526    91.502047
   21800    113.40643   -20966.666   -245.08899   -35.006698   -187.41867    -512.8416    99.235394    100.15526     91.50296
   21900    114.97071   -20966.732   -187.41954    13.723776    -114.6837   -461.29871    99.235394    100.15526    91.503873
   22000    115.99721     -20966.8   -98.312064    95.302385   -18.400022   -371.83855    99.235394    100.15526    91.504786
   22100     118.0242   -20966.872    7.7844416    217.90045    81.249208   -275.79633    99.235394    100.15526    91.505699
   22200     117.1992   -20966.945    70.531107    311.20006     131.4118   -231.01854    99.235394    100.15526    91.506612
   22300     116.6884    -20967.02    96.019096    353.06373     148.7306   -213.73705    99.235394    100.15526    91.507525
   22400    114.39873   -20967.096    105.23667    361.07035    167.48377   -212.84409    99.235394    100.15526    91.508438
   22500    111.66371    -20967.17    69.947567    315.73217    141.82874    -247.7182    99.235394    100.15526    91.509351
   22600    111.00005   -20967.244   -27.030067    194.90462    52.569915   -328.56474    99.235394    100.15526    91.510264
   22700    107.08011   -20967.315   -132.16959    79.292273   -56.558684   -419.24235    99.235394    100.15526    91.511177
   22800    105.60927   -20967.384   -209.22369   -16.938763   -122.29714   -488.43517    99.235394    100.15526     91.51209
   22900    101.89509   -20967.451   -254.96074   -75.299337   -170.33325   -519.24965    99.235394    100.15526    91.513003
   23000    99.891973   -20967.514   -310.16796   -142.08827   -225.72423   -562.69136    99.235394    100.15526    91.513916
   23100    99.599668   -20967.576   -353.54076   -205.36579   -247.65085   -607.60565    99.235394    100.15526    91.514829
   23200    97.488886   -20967.634   -391.20256   -265.57558   -251.60982   -656.42229    99.235394    100.15526    91.515742
   23300    99.124236   -20967.691   -375.88379   -264.25235   -217.42271   -645.97632    99.235394    100.15526    91.516655
   23400    99.544265   -20967.748   -296.48734   -185.48735   -135.83837   -568.13629    99.235394    100.15526    91.517568
   23500    103.03892   -20967.805   -237.72556   -115.30971   -79.262352   -518.60462    99.235394    100.15526    91.518481
   23600    104.84832   -20967.863   -137.37963   -5.2990058    21.446248   -428.28615    99.235394    100.15526    91.519394
   23700    107.93559   -20967.923   -47.289608    89.868531     125.4635   -357.20086    99.235394    100.15526    91.520307
   23800    111.72574   -20967.985    17.267602    142.45976    200.36504   -291.02199    99.235394    100.15526     91.52122
   23900    114.89401    -20968.05    33.664803    138.54684    236.50407    -274.0565    99.235394    100.15526    91.522133
   24000    115.46877   -20968.118    20.689853    117.72228    228.49255   -284.14526    99.235394    100.15526    91.523046
   24100    116.39648   -20968.188    45.354102     158.1099    240.99834   -263.04594    99.235394    100.15526    91.523959
   24200    118.39952    -20968.26    2.0096241     120.8283    183.27503   -298.07446    99.235394    100.15526    91.524873
   24300    116.04873   -20968.333   -61.449819    48.015926    113.42479   -345.79017    99.235394    100.15526    91.525786
   24400    115.58915   -20968.406   -84.350376    30.165453    87.818512   -371.03509    99.235394    100.15526    91.526699
   24500    113.63694    -20968.48   -145.94243   -55.044494    45.331228   -428.11404    99.235394    100.15526    91.527612
   24600    110.07204   -20968.553    -231.6765   -167.75388   -18.444086   -508.83154    99.235394    100.15526    91.528525
   24700    107.71384   -20968.623   -272.03238   -224.84372   -46.757561   -544.49587    99.235394    100.15526    91.529438
   24800    103.79518   -20968.691   -305.89353   -263.34732   -82.760317   -571.57296    99.235394    100.15526    91.530351
   24900    102.50824   -20968.756   -306.21838   -256.23797   -90.690282   -571.72691    99.235394    100.15526    91.531264
   25000    99.146629   -20968.819   -229.33746   -154.27178   -24.194636   -509.54597    99.235394    100.15526    91.532177
   25100    98.561273    -20968.88   -192.72461   -108.84608    14.410015   -483.73777    99.235394    100.15526     91.53309
   25200    96.804239   -20968.939   -169.36131   -89.489772    48.512675   -467.10683    99.235394    100.15526    91.534003
   25300    97.668807   -20968.995   -161.21337   -89.532502    76.755479    -470.8631    99.235394    100.15526    91.534916
   25400    97.870473   -20969.051   -134.03526   -41.803654    96.377487    -456.6796    99.235394    100.15526    91.535829
   25500    99.679504   -20969.107   -82.929215    28.368786    129.86381   -407.02024    99.235394    100.15526    91.536742
   25600    102.03307   -20969.162   -77.230003    34.394694    129.44806   -395.53276    99.235394    100.15526    91.537655
   25700      105.694   -20969.219   -95.742553    15.657394    96.568004   -399.45306    99.235394    100.15526    91.538568
   25800    107.26705   -20969.277   -96.084258     37.92575    70.304534   -396.48306    99.235394    100.15526    91.539481
   25900    109.58596   -20969.336   -135.92925    31.874759   -7.7237442   -431.93877    99.235394    100.15526    91.540394
   26000    112.31047   -20969.396   -161.62086    24.752078   -58.078081   -451.53657    99.235394    100.15526    91.541307
   26100    114.16045   -20969.459    -152.7439    52.918584   -73.882136   -437.26814    99.235394    100.15526     91.54222
   26200    114.81278   -20969.525   -174.76139    35.159162   -114.05338   -445.38994    99.235394    100.15526    91.543133
   26300    115.26047   -20969.592   -190.19263    35.645389   -138.72225   -467.50103    99.235394    100.15526    91.544046
   26400    113.50227   -20969.659   -139.87694    103.61189   -98.378821   -424.86388    99.235394    100.15526    91.544959
   26500    113.12821   -20969.728    -107.8591    158.48123   -70.673586   -411.38496    99.235394    100.15526    91.545872
   26600    112.48277   -20969.797   -106.75718    170.64458   -75.916104   -415.00002    99.235394    100.15526    91.546785
   26700     107.8669   -20969.865   -92.989698     188.9519   -68.187419   -399.73357    99.235394    100.15526    91.547699
   26800     105.4709   -20969.931   -109.46343    164.71721    -71.38162   -421.72587    99.235394    100.15526    91.548612
   26900    104.12207   -20969.996   -164.42728    94.465943   -107.69065   -480.05713    99.235394    100.15526    91.549525
   27000    100.21403   -20970.057   -144.52869    94.316673   -59.127212   -468.77553    99.235394    100.15526    91.550438
   27100    97.571553   -20970.116   -116.64057    113.07188   -6.6040275   -456.38957    99.235394    100.15526    91.551351
   27200    97.321101   -20970.173   -157.38442    60.886402   -43.849972    -489.1897    99.235394    100.15526    91.552264
   27300     97.67241   -20970.228   -186.77952     21.08834   -62.787198    -518.6397    99.235394    100.15526    91.553177
   27400     95.67233   -20970.281   -204.13108   -9.9336283   -67.761616   -534.69799    99.235394    100.15526     91.55409
   27500    98.633014   -20970.333   -282.02326    -111.0911   -138.59315   -596.38551    99.235394    100.15526    91.555003
   27600    99.935859   -20970.385   -308.32908   -157.95966   -150.92048   -616.10709    99.235394    100.15526    91.555916
   27700    102.31594   -20970.437    -275.7889    -125.7523   -123.36099   -578.25341    99.235394    100.15526    91.556829
   27800    105.86407    -20970.49   -217.17457   -54.296238   -73.082316   -524.14516    99.235394    100.15526    91.557742
   27900    108.11202   -20970.545   -148.11693    17.057498   -6.9627725   -454.44553    99.235394    100.15526    91.558655
   28000    111.52856   -20970.603   -148.65561    21.846637   -21.895625   -445.91784    99.235394    100.15526    91.559568
   28100    112.29428   -20970.662   -157.59443   -6.1103899   -20.150712   -446.52219    99.235394    100.15526    91.560481
   28200    114.00146   -20970.724   -113.11155    13.946192    60.245566    -413.5264    99.235394    100.15526    91.561394
   28300    114.69908   -20970.788   -82.031654    29.012831     119.5303   -394.63809    99.235394    100.15526    91.562307
   28400    114.48545   -20970.853   -46.347069    70.212062    157.93533    -367.1886    99.235394    100.15526     91.56322
   28500    113.37402   -20970.919    5.9552378    143.48879    199.35816   -324.98123    99.235394    100.15526    91.564133
   28600    111.98109   -20970.987    4.8896047    146.50094    195.97292   -327.80505    99.235394    100.15526    91.565046
   28700    109.10259   -20971.053   -35.647502    85.194224     173.7786   -365.91533    99.235394    100.15526    91.565959
   28800    106.88747   -20971.118   -103.77782   -4.1563226    122.98795    -430.1651    99.235394    100.15526    91.566872
   28900    104.45441   -20971.181   -190.86307   -115.47899    41.583018   -498.69323    99.235394    100.15526    91.567785
   29000    100.24123   -20971.242    -206.3414   -137.99959    28.243034   -509.26765    99.235394    100.15526    91.568698
   29100    99.825433     -20971.3   -203.59242   -111.05946    25.177696    -524.8955    99.235394    100.15526    91.569611
   29200    96.652235   -20971.356   -264.74691   -174.09795   -43.179461    -576.9633    99.235394    100.15526    91.570524
   29300    96.140792    -20971.41   -310.97615   -227.75491   -95.128199   -610.04535    99.235394    100.15526    91.571438
   29400    96.986724   -20971.462   -286.93855    -208.7975   -63.190989   -588.82715    99.235394    100.15526    91.572351
   29500    96.658751   -20971.512   -284.30513   -229.63238    -36.06925   -587.21375    99.235394    100.15526    91.573264
   29600    98.717967   -20971.563   -267.82921     -214.737   -11.546531    -577.2041    99.235394    100.15526    91.574177
   29700    101.76234   -20971.613   -236.73668   -154.63615    8.3855487   -563.95943    99.235394    100.15526     91.57509
   29800    101.96714   -20971.664   -171.74548   -52.328768    51.548983   -514.45666    99.235394    100.15526    91.576003
   29900    106.04127   -20971.716   -110.35637    37.077055    89.322458   -457.46862    99.235394    100.15526    91.576916
   30000    108.30125    -20971.77   -76.871837    86.216185    107.70223   -424.53392    99.235394    100.15526    91.577829
   30100     109.0571   -20971.826   -56.945468    110.37405    126.39881   -407.60926    99.235394    100.15526    91.578742
   30200    112.62065   -20971.884    -62.83732    111.57606    106.49564   -406.58367    99.235394    100.15526    91.579655
   30300    112.22013   -20971.943   -64.333727    133.21107     94.12686   -420.33911    99.235394    100.15526    91.580568
   30400    111.42454   -20972.004   -54.226747    169.05493    80.108248   -411.84342    99.235394    100.15526    91.581481
   30500    112.43992   -20972.065   -84.914358    150.99718    36.889355   -442.62961    99.235394    100.15526    91.582394
   30600    110.38313   -20972.127   -108.77411    124.32077    1.8921365   -452.53525    99.235394    100.15526    91.583307
   30700    108.20321   -20972.189   -125.31989    106.86623   -26.425619   -456.40028    99.235394    100.15526     91.58422
   30800    106.67759   -20972.249   -190.00316    24.085603   -89.167128   -504.92794    99.235394    100.15526    91.585133
   30900    103.74901   -20972.308   -239.75107   -39.694829   -122.71689   -556.84149    99.235394    100.15526    91.586046
   31000    103.16064   -20972.366   -272.74313   -61.523363    -155.6792   -601.02683    99.235394    100.15526    91.586959
   31100    99.254595   -20972.422   -307.28289   -89.677738   -197.52642   -634.64451    99.235394    100.15526    91.587872
   31200    98.182598   -20972.475   -297.43803   -64.054482   -200.60395   -627.65566    99.235394    100.15526    91.588785
   31300    96.803635   -20972.527    -240.7545   -7.8118472   -149.70335    -564.7483    99.235394    100.15526    91.589698
   31400    96.397779   -20972.577   -230.20089   -16.429567   -113.08659    -561.0865    99.235394    100.15526    91.590611
   31500    97.061515   -20972.626   -211.62974   -31.572501   -52.978608   -550.33812    99.235394    100.15526    91.591524
   31600    96.525362   -20972.675    -150.3009    13.527697    43.734852   -508.16525    99.235394    100.15526    91.592437
   31700    98.561578   -20972.722   -142.32309    23.614029    46.152644   -496.73594    99.235394    100.15526     91.59335
   31800    102.86575   -20972.771    -146.6563    43.402418    12.873652   -496.24496    99.235394    100.15526    91.594263
   31900    102.37512    -20972.82   -80.033546     131.5141    55.504143   -427.11887    99.235394    100.15526    91.595177
   32000    105.35078    -20972.87   -96.021722    107.95507    50.082848   -446.10308    99.235394    100.15526     91.59609
   32100    108.54245   -20972.921    -131.5958    48.554441    28.177771   -471.51962    99.235394    100.15526    91.597003
   32200    110.20223   -20972.974    -113.8676    44.802714    60.927159   -447.33267    99.235394    100.15526    91.597916
   32300    109.35418   -20973.029   -124.86601    26.239812    55.016654   -455.85448    99.235394    100.15526    91.598829
   32400    111.15449   -20973.084   -162.87777   -3.2005184    1.0450184    -486.4778    99.235394    100.15526    91.599742
   32500    110.31485   -20973.141   -160.91719    15.354184   -4.7719594   -493.33379    99.235394    100.15526    91.600655
   32600    109.61272   -20973.198   -190.13665   -13.898337   -43.518176   -512.99342    99.235394    100.15526    91.601568
   32700    106.98045   -20973.254   -181.90848    -5.109771   -33.311158    -507.3045    99.235394    100.15526    91.602481
   32800    105.61895   -20973.311   -163.25353    11.885492   0.32977535   -501.97587    99.235394    100.15526    91.603394
   32900    104.20188   -20973.366   -192.20508   -41.664681   -0.9384702    -534.0121    99.235394    100.15526    91.604307
   33000    101.20155    -20973.42   -179.48338    -40.19093    30.087033   -528.34625    99.235394    100.15526     91.60522
   33100    100.49462   -20973.473   -164.15678   -24.541464    51.251062   -519.17992    99.235394    100.15526    91.606133
   33200    98.512421   -20973.524   -177.12344   -33.346286     29.05132   -527.07537    99.235394    100.15526    91.607046
   33300    96.909457   -20973.573   -179.03952   -23.921153    16.110289    -529.3077    99.235394    100.15526    91.607959
   33400    97.450644   -20973.622   -183.64466   -29.382968    10.118576   -531.66958    99.235394    100.15526    91.608872
   33500    96.393038   -20973.668   -170.89781   -45.281492    56.841683   -524.25362    99.235394    100.15526    91.609785
   33600    96.129198   -20973.714   -189.07483   -85.824549    63.597009   -544.99696    99.235394    100.15526    91.610698
   33700    98.426767   -20973.759   -212.41307   -98.001683    37.011003   -576.24854    99.235394    100.15526    91.611611
   33800    99.469892   -20973.804    -183.6595   -46.993746    45.864189   -549.84895    99.235394    100.15526    91.612524
   33900    102.02471   -20973.849   -224.48886   -63.545737   -36.977171   -572.94368    99.235394    100.15526    91.613437
   34000    104.38991   -20973.894   -264.71119   -94.132168    -97.17567   -602.82572    99.235394    100.15526     91.61435
   34100    106.16239   -20973.942   -208.03357   -37.509097   -36.227605   -550.36399    99.235394    100.15526    91.615263
   34200    107.40019    -20973.99   -183.64719    -11.96129    3.7226976   -542.70297    99.235394    100.15526    91.616176
   34300    110.52684    -20974.04    -198.5056   -24.427477   -6.7460401   -564.34329    99.235394    100.15526    91.617089
   34400    108.53615   -20974.091   -162.10521    32.466261    11.157888   -529.93977    99.235394    100.15526    91.618003
   34500    110.38728   -20974.143   -123.47992    108.59994    8.3735235   -487.41323    99.235394    100.15526    91.618916
   34600    109.80906   -20974.197   -105.22953    151.13596    3.2938806   -470.11843    99.235394    100.15526    91.619829
   34700    108.65291   -20974.251   -90.276013    168.55553    31.201116   -470.58468    99.235394    100.15526    91.620742
   34800    107.85516   -20974.306   -83.741373    154.37484    58.168162   -463.76712    99.235394    100.15526    91.621655
   34900    104.70728    -20974.36   -94.786318    114.21885     71.40415   -469.98195    99.235394    100.15526    91.622568
   35000    103.47569   -20974.413   -127.91376    67.367673    46.781099   -497.89005    99.235394    100.15526    91.623481
   35100    101.26603   -20974.464   -155.16093    36.146753    16.846477   -518.47602    99.235394    100.15526    91.624394
   35200    97.624109   -20974.514   -192.53568    7.4122306   -18.812323   -566.20693    99.235394    100.15526    91.625307
   35300    97.158645   -20974.561   -234.69445   -42.456942   -59.998104    -601.6283    99.235394    100.15526     91.62622
   35400    96.766897   -20974.607   -291.82229   -103.60069   -113.75533   -658.11086    99.235394    100.15526    91.627133
   35500    94.922987   -20974.651   -310.73373    -129.3478   -121.23952   -681.61388    99.235394    100.15526    91.628046
   35600    94.997104   -20974.693   -299.11525   -123.89749   -99.886238   -673.56204    99.235394    100.15526    91.628959
   35700    95.543621   -20974.735   -337.70343    -174.4519   -136.27451   -702.38389    99.235394    100.15526    91.629872
   35800    97.660083   -20974.776   -317.42124   -153.42009    -118.1036   -680.74003    99.235394    100.15526    91.630785
   35900    98.858959   -20974.817   -209.25214   -21.977897   -12.510213   -593.26832    99.235394    100.15526    91.631698
   36000    100.70982   -20974.859   -191.23337    22.813668   -20.309191   -576.20457    99.235394    100.15526    91.632611
   36100    104.14557   -20974.901   -169.94067    55.941573   -18.846257   -546.91733    99.235394    100.15526    91.633524
   36200    106.23387   -20974.945   -120.93563    95.729489    42.793273   -501.32966    99.235394    100.15526    91.634437
   36300    107.40482   -20974.991   -99.119506    113.81424     71.62333   -482.79609    99.235394    100.15526     91.63535
   36400    108.90888   -20975.038   -56.992525    163.09577    113.32858   -447.40193    99.235394    100.15526    91.636263
   36500    109.89846   -20975.086   -49.992771    168.17947    124.96326   -443.12105    99.235394    100.15526    91.637176
   36600      108.874   -20975.136   -97.999242     118.3953    66.320158   -478.71318    99.235394    100.15526    91.638089
   36700    110.05651   -20975.186    -107.7047    102.01698    63.431057   -488.56212    99.235394    100.15526    91.639002
   36800    106.34847   -20975.236   -114.41104    77.204657    72.825583   -493.26337    99.235394    100.15526    91.639915
   36900    106.50535   -20975.287   -188.41599   -21.673259    20.697189   -564.27189    99.235394    100.15526    91.640828
   37000     103.9808   -20975.336   -222.19711   -74.864079    1.3842437   -593.11151    99.235394    100.15526    91.641742
   37100    101.31366   -20975.385   -254.35163   -128.20813   -15.971054    -618.8757    99.235394    100.15526    91.642655
   37200     101.3967   -20975.432   -284.87229    -166.4465   -43.438446   -644.73192    99.235394    100.15526    91.643568
   37300    96.709067   -20975.478   -253.98088   -146.35063  -0.12411553   -615.46788    99.235394    100.15526    91.644481
   37400    97.545532   -20975.522   -278.06405   -166.95274   -18.540383   -648.69903    99.235394    100.15526    91.645394
   37500    96.344655   -20975.564    -312.3169   -207.78023   -45.823847   -683.34661    99.235394    100.15526    91.646307
   37600    94.078986   -20975.605   -290.76144   -189.29966   -17.504618   -665.48005    99.235394    100.15526     91.64722
   37700    96.657713   -20975.645   -240.08168   -137.67484    41.548369   -624.11856    99.235394    100.15526    91.648133
   37800    95.398965   -20975.685   -166.04356   -51.583442    111.17191   -557.71914    99.235394    100.15526    91.649046
   37900    98.901923   -20975.724   -158.40293    -27.91139    106.95705   -554.25445    99.235394    100.15526    91.649959
   38000    99.881241   -20975.764   -152.44793    8.2009729    78.369294   -543.91404    99.235394    100.15526    91.650872
[...]
   85200    103.73341   -20973.815   -339.96726   -35.553933    93.274387   -1077.6222    99.235394    100.15526    92.081826
   85300     104.3009   -20973.798   -352.89262   -44.701864    66.984412   -1080.9604    99.235394    100.15526    92.082739
   85400       103.24    -20973.78   -336.68516   -25.442436    82.827841   -1067.4409    99.235394    100.15526    92.083652
   85500    102.25508   -20973.764   -388.22657   -84.771544    26.450057   -1106.3582    99.235394    100.15526    92.084566
   85600    101.93026   -20973.748   -414.03286   -109.94757   -8.7102311   -1123.4408    99.235394    100.15526    92.085479
   85700    101.02695   -20973.732   -415.01576   -119.28601   -6.0798723   -1119.6814    99.235394    100.15526    92.086392
   85800    100.79914   -20973.716   -421.86119   -131.02209   -16.135199   -1118.4263    99.235394    100.15526    92.087305
   85900    99.058423   -20973.701   -369.89911   -76.216787    40.765434    -1074.246    99.235394    100.15526    92.088218
   86000    100.01063   -20973.686   -359.37349   -65.227161    53.604741    -1066.498    99.235394    100.15526    92.089131
   86100     98.06507   -20973.671   -359.06058   -56.305084    38.519086   -1059.3957    99.235394    100.15526    92.090044
   86200    99.043045   -20973.655    -348.6683   -34.104761    43.162637   -1055.0628    99.235394    100.15526    92.090957
   86300    98.477356    -20973.64    -323.0184   -7.4839597    60.762199   -1022.3334    99.235394    100.15526     92.09187
   86400    98.571955   -20973.624   -304.00696    11.264109    80.932939   -1004.2179    99.235394    100.15526    92.092783
   86500    97.934466   -20973.609   -296.65542    27.687698     91.28213   -1008.9361    99.235394    100.15526    92.093696
   86600    99.562144   -20973.593   -303.02558    37.506811    90.594118   -1037.1777    99.235394    100.15526    92.094609
   86700    98.808089   -20973.576   -287.68661    73.054931    84.868329   -1020.9831    99.235394    100.15526    92.095522
   86800    100.57093    -20973.56   -318.60454    34.671504    55.957706   -1046.4428    99.235394    100.15526    92.096435
   86900    100.36425   -20973.543   -360.41078   -13.492225    18.348247   -1086.0884    99.235394    100.15526    92.097348
   87000    102.35484   -20973.527    -409.1845   -68.374197   -27.014155   -1132.1652    99.235394    100.15526    92.098261
   87100     101.2764    -20973.51   -432.40572   -101.20933   -40.578558   -1155.4293    99.235394    100.15526    92.099174
   87200    102.50061   -20973.493    -434.8056   -97.437971   -44.662981   -1162.3158    99.235394    100.15526    92.100087
   87300    103.51894   -20973.476   -405.37487   -38.964657   -41.890459   -1135.2695    99.235394    100.15526       92.101
   87400    105.04442    -20973.46    -389.9858    2.8519111   -35.542136   -1137.2672    99.235394    100.15526    92.101913
   87500    102.86244   -20973.445   -394.11812    17.601076   -60.143814   -1139.8116    99.235394    100.15526    92.102826
   87600    104.71339    -20973.43   -394.58048    21.553654    -56.63751   -1148.6576    99.235394    100.15526    92.103739
   87700    103.13839   -20973.416   -359.52082    38.281294   -6.6361409   -1110.2076    99.235394    100.15526    92.104652
   87800     103.3879   -20973.403   -359.12339    41.209197   -7.2040698   -1111.3753    99.235394    100.15526    92.105565
   87900    103.28864    -20973.39   -341.41423    66.160615    12.229896   -1102.6332    99.235394    100.15526    92.106478
   88000    103.15684   -20973.377    -348.1079    67.360266    4.2428988   -1115.9269    99.235394    100.15526    92.107392
   88100    103.03472   -20973.365   -362.37501    59.913395   -21.955734   -1125.0827    99.235394    100.15526    92.108305
   88200    100.99529   -20973.354   -310.98408    123.54817     11.06958     -1067.57    99.235394    100.15526    92.109218
   88300    101.27648   -20973.343   -309.45903     131.1171    4.3476004   -1063.8418    99.235394    100.15526    92.110131
   88400    100.61226   -20973.332   -381.08632    45.631183   -65.073207   -1123.8169    99.235394    100.15526    92.111044
   88500    98.859081   -20973.321   -423.09069   -5.3099761   -107.60325   -1156.3589    99.235394    100.15526    92.111957
   88600    100.29832   -20973.309    -451.4814   -34.806462   -140.05401   -1179.5837    99.235394    100.15526     92.11287
   88700    97.317979   -20973.298   -434.80286   -16.687101    -137.6048   -1150.1167    99.235394    100.15526    92.113783
   88800    98.841963   -20973.287    -418.4387    11.029197   -125.89613   -1140.4492    99.235394    100.15526    92.114696
   88900    97.509482   -20973.275   -393.98796    45.931507   -110.03436    -1117.861    99.235394    100.15526    92.115609
   89000    98.763039   -20973.263   -415.85749    17.905472   -126.13462   -1139.3433    99.235394    100.15526    92.116522
   89100    98.812628   -20973.251   -406.12824    7.6738674   -93.250897   -1132.8077    99.235394    100.15526    92.117435
   89200    98.134534   -20973.238   -351.69674    38.609049   -18.310233   -1075.3891    99.235394    100.15526    92.118348
   89300    99.167813   -20973.226   -339.47395    38.435808    9.8814683   -1066.7391    99.235394    100.15526    92.119261
   89400    100.80424   -20973.214   -300.15759    69.748665    69.970638   -1040.1921    99.235394    100.15526    92.120174
   89500    99.842287   -20973.201   -272.57988    99.257347    106.93567   -1023.9326    99.235394    100.15526    92.121087
   89600     99.45939   -20973.189    -284.1564     89.82631    90.154269   -1032.4498    99.235394    100.15526       92.122
   89700    101.94905   -20973.177   -304.11332    53.340635    84.759943   -1050.4405    99.235394    100.15526    92.122913
   89800    100.89076   -20973.165   -344.85401    16.851372    37.712938   -1089.1263    99.235394    100.15526    92.123826
   89900    101.09185   -20973.152   -347.08729    3.3324068    53.827737    -1098.422    99.235394    100.15526    92.124739
   90000      102.123    -20973.14   -339.61717    -6.437435    82.784875    -1095.199    99.235394    100.15526    92.125652
   90100    101.77815   -20973.128   -423.65016   -99.265762      1.53747   -1173.2222    99.235394    100.15526    92.126565
   90200    101.96685   -20973.116    -481.4398   -147.58015   -70.956839   -1225.7824    99.235394    100.15526    92.127478
   90300    103.24216   -20973.104    -477.8856   -143.27017   -60.651923   -1229.7347    99.235394    100.15526    92.128391
   90400     102.1665   -20973.092   -477.44361   -138.83169      -64.928   -1228.5711    99.235394    100.15526    92.129304
   90500    103.94337   -20973.081   -449.67106   -105.95099   -31.316973   -1211.7452    99.235394    100.15526    92.130217
   90600    103.21351    -20973.07   -390.06557    -45.46196    47.024614   -1171.7594    99.235394    100.15526    92.131131
   90700     103.2477    -20973.06   -378.39049   -29.151599    55.756244   -1161.7761    99.235394    100.15526    92.132044
   90800    103.88932   -20973.051   -375.78039   -17.279894    46.932153   -1156.9934    99.235394    100.15526    92.132957
   90900    105.48189   -20973.042   -337.54215    31.458233     77.48379   -1121.5685    99.235394    100.15526     92.13387
   91000    105.20405   -20973.034    -334.6203     45.57543    69.815805   -1119.2521    99.235394    100.15526    92.134783
   91100      103.984   -20973.027   -333.34326    52.927124    69.244774   -1122.2017    99.235394    100.15526    92.135696
   91200    105.19658    -20973.02   -313.30876    74.289047    94.212546   -1108.4279    99.235394    100.15526    92.136609
   91300    104.52079   -20973.015   -304.88947    63.114098    108.90591   -1086.6884    99.235394    100.15526    92.137522
   91400    105.77616    -20973.01   -329.93997    34.781763     75.25257   -1099.8542    99.235394    100.15526    92.138435
   91500    103.92389   -20973.006    -372.1366   -2.1995846    27.291663   -1141.5019    99.235394    100.15526    92.139348
   91600    103.09503   -20973.001     -447.737   -70.100615   -61.966052   -1211.1443    99.235394    100.15526    92.140261
   91700      103.102   -20972.998   -465.90221   -82.876238   -82.199601   -1232.6308    99.235394    100.15526    92.141174
   91800    101.97928   -20972.994   -428.36056   -50.004135   -38.010783   -1197.0668    99.235394    100.15526    92.142087
   91900    100.70238   -20972.992   -418.22785   -39.286502   -35.732056    -1179.665    99.235394    100.15526       92.143
   92000    101.39737   -20972.989   -438.87129   -55.999039   -73.316488   -1187.2983    99.235394    100.15526    92.143913
   92100    100.80094   -20972.986   -419.89345   -3.8224823   -72.369827    -1183.488    99.235394    100.15526    92.144826
   92200    98.001295   -20972.984    -419.4834    12.371388   -84.697287   -1186.1243    99.235394    100.15526    92.145739
   92300    98.856852   -20972.981   -433.47058 -0.066027223   -92.848668    -1207.497    99.235394    100.15526    92.146652
   92400    99.349881   -20972.978   -348.44808    74.073431    9.0628106   -1128.4805    99.235394    100.15526    92.147565
   92500    98.306597   -20972.975   -293.65683    118.15976    76.663354   -1075.7936    99.235394    100.15526    92.148478
   92600    99.879483   -20972.973   -314.85023    90.301821     64.74768   -1099.6002    99.235394    100.15526    92.149391
   92700    98.017087    -20972.97   -320.14943    80.163619    64.664593   -1105.2765    99.235394    100.15526    92.150304
   92800    99.330709   -20972.967   -357.75253    36.001658    32.895781    -1142.155    99.235394    100.15526    92.151217
   92900    99.514521   -20972.963   -370.46536    34.015835    11.292921   -1156.7048    99.235394    100.15526     92.15213
   93000    99.258332    -20972.96   -362.29328    54.277139    7.2437353   -1148.4007    99.235394    100.15526    92.153043
   93100    100.10721   -20972.956   -391.69124    12.847948   -9.2906566    -1178.631    99.235394    100.15526    92.153957
   93200    100.88262   -20972.952   -425.47668   -31.543547   -36.989519    -1207.897    99.235394    100.15526     92.15487
   93300    100.25639   -20972.948   -469.60666   -97.906619   -65.606335    -1245.307    99.235394    100.15526    92.155783
   93400    101.89826   -20972.944     -493.391   -143.26554   -71.990826   -1264.9166    99.235394    100.15526    92.156696
   93500    101.68456    -20972.94   -456.82017   -97.575453   -41.203103    -1231.682    99.235394    100.15526    92.157609
   93600    102.59201   -20972.937    -460.3137   -93.418121   -51.272456   -1236.2505    99.235394    100.15526    92.158522
   93700      101.539   -20972.934   -454.03761   -85.956417   -39.389982   -1236.7664    99.235394    100.15526    92.159435
   93800    103.89797   -20972.931     -422.916   -53.949987    8.2636765   -1223.0617    99.235394    100.15526    92.160348
   93900     103.3044   -20972.929   -382.37929   -26.710501    64.842694     -1185.27    99.235394    100.15526    92.161261
   94000    103.17425   -20972.928   -330.70803    15.433069    132.87718   -1140.4343    99.235394    100.15526    92.162174
   94100    103.37369   -20972.928   -311.60343    29.519791    154.98685   -1119.3169    99.235394    100.15526    92.163087
   94200     103.4675   -20972.928   -336.21226    10.547084    125.50301   -1144.6869    99.235394    100.15526       92.164
   94300    102.38525   -20972.928   -319.25305    47.146896    127.58255   -1132.4886    99.235394    100.15526    92.164913
   94400    102.26927   -20972.929   -300.21961    86.048815    129.25527   -1115.9629    99.235394    100.15526    92.165826
   94500     102.1421    -20972.93   -357.66652    33.395442    61.589086   -1167.9841    99.235394    100.15526    92.166739
   94600    100.91101   -20972.931   -406.13261    -17.30676    2.8633005   -1203.9544    99.235394    100.15526    92.167652
   94700    100.70528   -20972.932   -441.75251   -55.878214   -38.908207   -1230.4711    99.235394    100.15526    92.168565
   94800    100.05978   -20972.933   -483.25372   -97.778175   -90.199186   -1261.7838    99.235394    100.15526    92.169478
   94900    99.335952   -20972.934   -476.06144   -88.512309   -86.624844   -1253.0472    99.235394    100.15526    92.170391
   95000    99.843597   -20972.934    -486.3833   -101.87644   -96.918576   -1260.3549    99.235394    100.15526    92.171304
   95100    98.960042   -20972.935   -476.31514   -86.954167   -98.607561   -1243.3837    99.235394    100.15526    92.172217
   95200     98.21757   -20972.935   -438.77224   -22.909623   -83.525189   -1209.8819    99.235394    100.15526     92.17313
   95300    100.42838   -20972.936   -424.56256    7.8770848   -78.404334   -1203.1604    99.235394    100.15526    92.174043
   95400     98.93132   -20972.937   -382.34989    61.883473   -34.283561   -1174.6496    99.235394    100.15526    92.174956
   95500    99.365899   -20972.938   -345.35746    104.80294 -0.086788102   -1140.7885    99.235394    100.15526    92.175869
   95600    100.72207   -20972.938   -311.02786    137.62184    37.592521   -1108.2979    99.235394    100.15526    92.176782
   95700    100.19418    -20972.94   -282.64856    174.86715     58.47095   -1081.2838    99.235394    100.15526    92.177696
   95800    100.28854   -20972.941    -301.0788    155.45195    49.524606    -1108.213    99.235394    100.15526    92.178609
   95900    100.87413   -20972.942   -316.61168    117.95671    53.697378   -1121.4891    99.235394    100.15526    92.179522
   96000    101.26328   -20972.943   -332.76471    89.333693    47.568713   -1135.1965    99.235394    100.15526    92.180435
   96100    99.991198   -20972.944   -369.92553    55.135642    1.6611034   -1166.5733    99.235394    100.15526    92.181348
   96200    101.19759   -20972.946   -412.65339    15.132013   -48.989039   -1204.1031    99.235394    100.15526    92.182261
   96300    100.69843   -20972.947    -459.6577   -27.241401   -100.46855   -1251.2631    99.235394    100.15526    92.183174
   96400    102.87265   -20972.948   -484.87121   -49.367635   -123.13381   -1282.1122    99.235394    100.15526    92.184087
   96500    100.32876   -20972.949   -497.44059   -68.056619   -134.85961   -1289.4055    99.235394    100.15526       92.185
   96600    103.82942    -20972.95   -532.69528   -108.52428   -173.95465   -1315.6069    99.235394    100.15526    92.185913
   96700    102.27336   -20972.952   -470.58341   -49.007105   -95.096988   -1267.6461    99.235394    100.15526    92.186826
   96800    102.52898   -20972.954   -447.32654   -18.191603   -56.724236   -1267.0638    99.235394    100.15526    92.187739
   96900    105.35421   -20972.957   -444.72159   -5.8109748   -50.295163   -1278.0586    99.235394    100.15526    92.188652
   97000    102.89127   -20972.961   -359.72351    90.634206    34.871214    -1204.676    99.235394    100.15526    92.189565
   97100    103.91659   -20972.966   -358.80177    89.644093    36.646549   -1202.6959    99.235394    100.15526    92.190478
   97200    104.24757   -20972.971   -337.55102    100.03705    64.369709   -1177.0598    99.235394    100.15526    92.191391
   97300    104.09533   -20972.977    -313.6239    130.35573    92.457113   -1163.6846    99.235394    100.15526    92.192304
   97400     104.1263   -20972.983   -372.00095    53.138336    46.548525   -1215.6897    99.235394    100.15526    92.193217
   97500    104.57707    -20972.99   -356.48667    50.186277    84.777072   -1204.4234    99.235394    100.15526     92.19413
   97600    104.65979   -20972.998   -338.54019    50.940185    121.51559   -1188.0763    99.235394    100.15526    92.195043
   97700    104.24078   -20973.006   -416.25824   -42.170691    32.006371   -1238.6104    99.235394    100.15526    92.195956
   97800    103.12202   -20973.015   -475.22806   -119.16639   -25.013659   -1281.5041    99.235394    100.15526    92.196869
   97900    102.83958   -20973.023   -502.93484   -143.99201   -58.127631   -1306.6849    99.235394    100.15526    92.197782
   98000    102.07829   -20973.032    -486.9258   -116.77625   -41.357136    -1302.644    99.235394    100.15526    92.198695
   98100    101.29872   -20973.042   -465.11723   -98.629176   -17.495478    -1279.227    99.235394    100.15526    92.199608
   98200    100.10445   -20973.051   -447.45352   -100.41375    9.8638699   -1251.8107    99.235394    100.15526    92.200522
   98300    100.47671   -20973.061   -439.55657   -105.38687    22.919245   -1236.2021    99.235394    100.15526    92.201435
   98400    99.743599    -20973.07   -444.27215   -110.18304    14.066865   -1236.7003    99.235394    100.15526    92.202348
   98500    98.401678    -20973.08   -426.32534   -100.10384     38.39744   -1217.2696    99.235394    100.15526    92.203261
   98600    99.171498   -20973.089   -375.71149   -25.739427    80.222918    -1181.618    99.235394    100.15526    92.204174
   98700    97.764373   -20973.098   -318.69928     54.75718    127.02149   -1137.8765    99.235394    100.15526    92.205087
   98800    99.669787   -20973.108   -290.17422     104.1374    140.25001   -1114.9101    99.235394    100.15526       92.206
   98900    97.671158   -20973.117   -291.01528    106.15422    126.91163   -1106.1117    99.235394    100.15526    92.206913
   99000    98.769565   -20973.126   -343.62089    43.032899     82.70763   -1156.6032    99.235394    100.15526    92.207826
   99100    98.756521   -20973.134   -391.39687   -10.467365    34.807468   -1198.5307    99.235394    100.15526    92.208739
   99200    98.257235   -20973.142   -416.42878    -34.96893    9.4011356   -1223.7185    99.235394    100.15526    92.209652
   99300    98.208475    -20973.15   -417.77015     -27.8051    1.6839769   -1227.1893    99.235394    100.15526    92.210565
   99400    100.77769   -20973.157   -440.10183    -33.30224   -27.517378   -1259.4859    99.235394    100.15526    92.211478
   99500    98.878462   -20973.165   -448.14491   -36.583048   -53.561453   -1254.2902    99.235394    100.15526    92.212391
   99600    100.25182   -20973.172   -491.51603   -88.437144   -93.168131   -1292.9428    99.235394    100.15526    92.213304
   99700    100.66401   -20973.179    -515.9238   -117.37268   -114.21267    -1316.186    99.235394    100.15526    92.214217
   99800    100.06182   -20973.186   -498.92271   -93.262347   -81.637056   -1321.8687    99.235394    100.15526     92.21513
   99900    102.67521   -20973.193   -453.57735   -45.488718   -26.285089   -1288.9582    99.235394    100.15526    92.216043
  100000    101.08848   -20973.201   -392.89747    37.176499     19.55387   -1235.4228    99.235394    100.15526    92.216956
Loop time of 35.6144 on 28 procs for 100000 steps with 5538 atoms

Performance: 242.598 ns/day, 0.099 hours/ns, 2807.852 timesteps/s
99.9% CPU use with 28 MPI tasks x 1 OpenMP threads

MPI task timing breakdown:
Section |  min time  |  avg time  |  max time  |%varavg| %total
---------------------------------------------------------------
Pair    | 24.768     | 27.203     | 30.177     |  29.4 | 76.38
Neigh   | 0.30006    | 0.36704    | 0.43039    |   5.7 |  1.03
Comm    | 2.0982     | 5.1854     | 7.7145     |  72.0 | 14.56
Output  | 0.59804    | 0.63092    | 0.63468    |   1.0 |  1.77
Modify  | 1.314      | 1.839      | 2.4202     |  24.4 |  5.16
Other   |            | 0.3892     |            |       |  1.09

Nlocal:    197.786 ave 229 max 167 min
Histogram: 4 3 1 3 1 1 8 2 3 2
Nghost:    527.929 ave 590 max 453 min
Histogram: 3 2 5 3 0 1 1 1 6 6
Neighs:    4736.5 ave 6029 max 3872 min
Histogram: 5 2 3 3 6 2 3 2 1 1
FullNghs:  9474.71 ave 11136 max 8082 min
Histogram: 5 3 0 3 3 3 7 1 1 2

Total # of neighbors = 265292
Ave neighs/atom = 47.9039
Neighbor list builds = 1963
Dangerous builds = 0

Total wall time: 0:00:43
