5538
Atoms. Timestep: 0
1 45.2066 37.214 8.42104
1 46.4925 35.4552 7.69957
1 46.2538 34.8303 9.95698
1 48.7479 34.5733 8.04685
1 48.7082 34.9671 10.4339
1 38.9278 37.9507 8.63211
1 37.9306 39.1196 10.3477
1 42.0357 37.2869 10.2111
1 41.1907 39.5769 10.7068
1 41.1628 37.3305 7.83436
1 43.21 38.6368 8.73201
1 42.7807 38.4772 12.2098
1 45.3423 39.7782 12.4029
1 45.1229 39.2005 9.91887
1 44.0338 36.3474 10.3225
1 47.3048 38.3119 12.5674
1 47.4154 40.3711 13.7287
1 44.775 37.2769 12.6602
1 46.9795 36.2204 11.5867
1 49.7388 35.5344 14.9548
1 49.6357 38.0919 13.4234
1 49.2768 35.9628 12.7229
1 38.0577 42.3173 9.69079
1 35.6768 43.1291 10.3976
1 36.2031 40.765 10.3921
1 39.3434 42.6965 12.7756
1 37.8793 43.8727 11.2758
1 37.0446 41.8947 12.1942
1 39.8307 37.7266 10.896
1 41.5317 41.948 11.664
1 40.2866 44.2107 11.0184
1 39.2979 40.8827 11.0596
1 43.4924 40.5259 11.2077
1 46.176 43.8075 14.254
1 43.8807 42.8486 11.0507
1 43.4779 41.6679 13.2309
1 45.2353 41.4721 14.8824
1 46.4309 42.7003 10.2167
1 46.5597 44.93 9.60381
1 45.8735 41.9855 12.5195
1 49.8247 40.3828 13.0509
1 49.6487 43.4423 10.8295
1 49.0256 45.5313 9.7057
1 48.2087 41.6807 11.7339
1 34.5018 45.9661 8.94054
1 35.5157 48.0699 7.82008
1 33.9835 41.5909 9.43349
1 34.615 45.344 11.0894
1 34.3325 47.911 11.7399
1 33.3541 43.9378 9.64035
1 35.7659 43.8751 12.8621
1 38.8121 46.0119 11.9781
1 37.8912 48.3289 11.9974
1 36.3476 46.2302 12.2729
1 40.4373 44.8228 14.2068
1 42.3372 48.9067 12.205
1 41.1153 51.0094 11.359
1 41.0143 46.8449 12.4369
1 42.1307 44.3293 12.474
1 43.3238 46.6327 8.14931
1 42.9566 48.3195 9.94632
1 41.8477 46.0729 10.4042
1 44.129 44.8115 9.58988
1 45.2021 44.651 11.8619
1 47.0113 48.4613 10.4938
1 45.0412 46.9933 10.0632
1 47.5684 44.0513 12.1241
1 49.4439 46.1405 12.1701
1 50.0688 49.1181 13.9358
1 47.1974 46.2709 11.3605
1 36.0514 47.6877 10.2443
1 35.0329 49.624 13.3647
1 40.1933 48.8253 11.3878
1 43.7197 50.5872 10.7361
1 43.5393 46.6161 12.0977
1 48.2317 48.2119 12.7399
1 41.1571 34.8211 18.2305
1 47.6104 32.048 17.3344
1 45.5579 33.0885 16.9785
1 50.0562 32.6072 17.6894
1 48.6597 33.8039 16.1393
1 40.0623 37.0222 18.6232
1 38.0029 37.5255 17.4724
1 41.2878 36.6093 16.47
1 40.0005 38.7697 16.9102
1 41.8907 36.1234 20.2809
1 41.6442 33.0826 16.6043
1 42.9931 37.1064 14.3216
1 43.6469 39.614 14.2326
1 41.6027 34.8372 14.9823
1 43.4501 34.0419 17.7372
1 46.8609 37.5734 16.4601
1 45.7368 38.407 14.5143
1 44.267 34.9971 15.696
1 46.8023 35.0007 15.9548
1 48.9733 36.7557 17.0637
1 48.7532 38.8677 15.4643
1 47.6365 36.774 14.442
1 34.6992 42.995 17.2849
1 36.6515 42.5838 14.7333
1 36.1527 39.1884 18.3822
1 37.9763 42.6012 16.9057
1 37.9838 44.6112 13.8705
1 35.9373 41.0553 16.7748
1 37.9161 39.9139 16.5892
1 40.307 43.0093 16.2899
1 41.5127 42.4334 14.1799
1 38.7299 41.5197 14.8284
1 42.3077 38.9414 16.0796
1 43.049 42.2426 16.2869
1 43.625 43.8353 14.2713
1 40.8634 40.7841 15.9091
1 44.3906 37.5664 16.3439
1 47.3663 42.1049 15.8136
1 45.2656 43.3637 16.3622
1 44.2934 40.0276 16.4566
1 46.6986 39.9013 16.2735
1 49.4575 43.4932 15.7666
1 49.5052 44.4913 13.7174
1 49.4427 41.1377 15.2541
1 32.9824 47.2183 16.1654
1 30.9922 48.3376 16.6502
1 34.4789 43.9825 15.1296
1 35.3359 46.6129 16.6233
1 35.3518 49.0275 15.8691
1 34.3508 47.5375 14.4259
1 36.5501 44.4999 16.421
1 37.7975 46.8568 16.0972
1 36.9521 48.2014 13.9474
1 35.9462 45.7311 14.6274
1 39.0618 44.9087 16.3014
1 40.7279 46.5289 16.183
1 41.2511 48.4629 14.4495
1 39.1099 46.999 14.1575
1 42.1044 44.5248 16.4044
1 43.0294 47.8367 16.2146
1 43.895 48.2235 14.0202
1 42.5449 46.143 14.3493
1 44.2393 45.5436 16.4118
1 46.1929 46.8944 16.1328
1 46.1939 47.9421 13.8344
1 44.9982 45.9108 13.9463
1 47.2662 44.8527 16.1586
1 49.4143 45.9685 16.4054
1 48.4098 47.5641 15.0788
1 47.4369 45.8391 13.872
1 33.057 49.6424 17.1973
1 37.6379 49.8833 15.7684
1 39.5843 48.7707 16.2599
1 41.7687 49.9862 16.1669
1 44.9301 48.9445 16.053
1 47.225 49.2594 16.1989
1 44.5834 35.978 20.3041
1 46.9881 33.8936 18.8872
1 46.796 35.125 20.982
1 48.9993 34.7746 18.3611
1 49.5106 35.074 20.9037
1 38.3952 38.3341 19.6307
1 39.296 40.431 20.6191
1 41.9027 38.6984 18.4805
1 41.905 40.2626 20.503
1 40.6429 38.1857 20.6007
1 43.0611 36.4478 18.1467
1 44.304 38.5554 18.6554
1 44.6058 40.1393 20.5848
1 43.185 37.9936 20.6765
1 45.4153 35.7463 17.8627
1 46.918 38.8048 18.4661
1 47.0679 40.2702 20.365
1 45.8121 38.0736 20.5507
1 47.3785 36.4958 19.1707
1 49.3829 38.8229 18.1612
1 49.6261 40.3482 20.3588
1 48.5406 37.9436 20.4238
1 36.699 43.1238 18.6694
1 36.515 44.6533 20.5557
1 38.0156 40.7586 18.7352
1 39.4516 43.0174 18.7088
1 39.3886 44.752 20.5232
1 37.9237 42.6398 20.6599
1 40.5555 40.7186 18.4281
1 41.7929 42.9477 18.4881
1 41.7938 44.7022 20.4633
1 40.6969 42.4834 20.6681
1 43.1384 40.9091 18.5208
1 44.3182 43.0848 18.5319
1 44.4127 44.5757 20.5286
1 43.3159 42.2685 20.5465
1 45.5253 40.8467 18.3085
1 47.0829 43.0893 18.213
1 47.1201 44.5625 20.4092
1 45.8537 42.4802 20.3274
1 48.2629 40.9992 18.0725
1 49.6052 43.2353 18.2531
1 49.5422 44.7932 20.4848
1 48.5152 42.5324 20.4684
1 34.078 47.3761 18.4951
1 34.2464 48.6771 20.4835
1 34.9525 45.0711 18.6584
1 36.8706 47.2125 18.3931
1 36.7422 49.069 20.4571
1 35.4608 46.7692 20.4483
1 38.0136 45.114 18.6646
1 39.2841 47.334 18.283
1 39.3172 48.9278 20.3913
1 37.9195 46.9518 20.4855
1 40.6382 45.1758 18.1929
1 41.9256 47.3133 18.3214
1 41.9639 48.8692 20.3946
1 40.4976 46.8336 20.2313
1 43.1811 45.1884 18.4752
1 44.4851 47.4662 18.1478
1 44.4304 48.9749 20.3121
1 43.2354 46.7359 20.5159
1 45.6783 45.233 18.2276
1 47.0893 47.5662 18.1569
1 47.085 49.1598 20.3091
1 45.7347 46.7828 20.2123
1 48.4006 45.3508 18.427
1 49.488 47.5054 18.113
1 49.537 49.0635 20.2993
1 48.258 46.9787 20.2509
1 35.4587 49.2379 18.2457
1 38.09 49.5535 18.2349
1 40.5325 49.5794 18.3591
1 43.2545 49.6845 18.0673
1 45.7142 49.7062 18.316
1 48.3631 49.7481 18.2324
1 44.4907 35.8581 24.6876
1 48.1196 34.3759 23.0405
1 46.9622 35.7828 24.7489
1 50.7838 34.1745 22.9462
1 49.4463 35.6656 24.7878
1 39.1335 38.9899 22.5888
1 39.1956 40.6475 24.7187
1 42.1094 38.778 22.6619
1 42.0514 40.3196 24.5974
1 40.4269 38.2219 24.6431
1 43.1509 36.4198 22.5548
1 44.6251 38.7887 22.5525
1 44.532 40.4008 24.6705
1 43.2181 37.8977 24.5969
1 45.5029 36.6132 22.5431
1 47.062 38.9045 22.637
1 47.0795 40.4117 24.6292
1 45.6432 38.06 24.6429
1 48.1544 36.6915 22.6134
1 49.6264 38.7884 22.639
1 49.5853 40.2392 24.7214
1 48.4259 38.0435 24.7074
1 36.6603 43.1527 22.676
1 36.6443 44.8582 24.6791
1 37.8947 40.9707 22.5859
1 39.4217 43.0078 22.6882
1 39.3284 44.6841 24.5179
1 37.8756 42.6983 24.7119
1 40.749 40.8928 22.5806
1 41.9246 43.2767 22.5717
1 41.8966 44.6937 24.6517
1 40.6184 42.5494 24.5016
1 43.3701 40.899 22.5796
1 44.5129 43.112 22.5605
1 44.6369 44.6801 24.4108
1 43.1919 42.6328 24.7973
1 45.8807 41.1413 22.3443
1 47.1068 43.1478 22.5207
1 47.1007 44.7075 24.3962
1 45.7969 42.5231 24.5319
1 48.523 40.9486 22.4027
1 49.4823 43.228 22.4143
1 49.5002 44.7504 24.3763
1 48.5348 42.499 24.6145
1 34.2389 47.4142 22.6237
1 33.9952 49.1719 24.6016
1 35.4883 45.5734 22.7886
1 36.783 47.5673 22.6215
1 36.7834 49.2029 24.623
1 35.4277 47.2011 24.8491
1 37.9768 45.4259 22.4233
1 39.2565 47.502 22.4454
1 39.2349 49.1701 24.4793
1 37.9997 46.8944 24.5651
1 40.5723 45.2873 22.524
1 41.843 47.4756 22.4139
1 41.8865 49.1712 24.5243
1 40.5851 47.0702 24.5342
1 43.2273 45.4381 22.5697
1 44.5158 47.5442 22.3265
1 44.474 49.1891 24.4862
1 43.1179 46.9242 24.5648
1 45.8946 45.4135 22.4737
1 47.0523 47.7388 22.3738
1 47.1722 49.2201 24.363
1 45.6362 47.0107 24.5384
1 48.294 45.57 22.3451
1 49.6453 47.8126 22.4181
1 49.6484 49.1581 24.5033
1 48.1947 47.0232 24.4554
1 35.4352 49.5939 22.5494
1 37.9721 49.6457 22.449
1 40.5486 49.7557 22.407
1 43.153 49.7407 22.3684
1 45.7727 49.765 22.3729
1 48.399 50.067 22.2389
1 44.5251 35.7999 28.7763
1 47.2607 34.6544 26.9532
1 46.9881 35.965 28.9228
1 49.4769 34.2231 26.8886
1 49.5661 35.793 28.7029
1 39.4156 39.0617 26.7018
1 39.0718 40.5912 28.7986
1 41.8904 38.6733 26.6567
1 41.8216 40.4271 28.6531
1 40.6188 38.2247 28.7695
1 43.3633 36.6382 26.681
1 44.4671 38.9488 26.5988
1 44.3239 40.2699 28.7828
1 43.2899 38.199 28.7184
1 45.7992 36.6201 26.6517
1 47.1746 38.931 26.6637
1 47.0619 40.4409 28.7112
1 45.8329 38.163 28.7902
1 48.3433 36.6696 26.8946
1 49.6675 38.8101 26.6905
1 49.6181 40.295 28.7793
1 48.2015 38.1385 28.9161
1 36.3975 43.1863 26.7305
1 36.5778 44.8588 28.6985
1 37.9213 41.143 26.6021
1 39.5063 43.2196 26.5547
1 39.3004 44.8233 28.7559
1 37.9176 42.7954 28.6826
1 40.6307 41.0061 26.6787
1 42.0206 43.2236 26.713
1 41.936 44.8359 28.7413
1 40.6027 42.5582 28.7183
1 43.3182 41.0053 26.7269
1 44.4358 43.3073 26.6512
1 44.5525 44.7333 28.8133
1 43.1797 42.4786 28.8331
1 45.8533 41.0258 26.7364
1 47.0178 43.3113 26.528
1 47.1617 44.7492 28.6757
1 45.7788 42.4845 28.7424
1 48.3899 41.1788 26.7346
1 49.6814 43.3131 26.5962
1 49.7801 44.8805 28.7716
1 48.3838 42.604 28.5725
1 34.202 47.8397 26.8615
1 34.348 49.3515 28.6235
1 35.493 45.5889 26.772
1 36.8732 47.6765 26.8729
1 36.7781 49.3971 28.7235
1 35.3466 46.9818 28.8257
1 38.1821 45.4511 26.7237
1 39.2487 47.6458 26.6146
1 39.2178 49.27 28.6935
1 38.046 47.0647 28.7981
1 40.6319 45.4067 26.5704
1 41.8044 47.6692 26.6231
1 41.8813 49.2835 28.8789
1 40.603 47.0205 28.7831
1 43.2276 45.4723 26.5985
1 44.261 47.7694 26.6001
1 44.4023 49.2797 28.6779
1 43.0589 47.0671 28.7377
1 45.816 45.5189 26.7743
1 46.9706 47.8361 26.4978
1 46.9276 49.2412 28.7623
1 45.8148 46.9028 28.7537
1 48.5013 45.5826 26.5877
1 49.673 47.9009 26.6526
1 49.6255 49.2188 28.567
1 48.4295 46.9719 28.8339
1 35.465 50.0373 26.4915
1 38.0888 49.9888 26.6402
1 40.5229 49.8547 26.6418
1 43.1608 49.8577 26.7649
1 45.682 49.7665 26.6103
1 48.1356 50.0331 26.5317
1 47.5807 34.6587 30.8908
1 50.0715 34.5959 30.8059
1 39.5499 39.1046 30.779
1 41.8645 38.8793 31.0125
1 43.4568 36.7029 30.9191
1 44.6841 38.7907 30.9854
1 45.8819 36.5926 30.8922
1 47.1094 38.9119 30.9539
1 48.5025 36.7726 30.7868
1 49.6956 39.0153 30.9454
1 36.7488 43.4602 30.952
1 37.9604 41.2857 30.9566
1 39.5433 43.4313 30.9503
1 40.7638 41.2187 30.8248
1 42.076 43.4505 30.8384
1 43.1868 41.061 30.8797
1 44.5626 43.3663 30.8398
1 45.7027 41.1797 30.8118
1 46.9854 43.4814 30.9677
1 48.2847 41.2399 30.9428
1 49.5902 43.3603 30.93
1 34.1976 48.0429 30.6412
1 35.5383 45.7768 31.0057
1 36.8357 47.692 30.6453
1 38.2284 45.5354 30.7178
1 39.442 47.7865 30.8082
1 40.7753 45.595 30.7577
1 41.9971 47.7765 30.8714
1 43.1819 45.6715 30.7661
1 44.5097 47.8976 30.796
1 45.8905 45.6598 30.929
1 47.0376 47.7307 30.7125
1 48.306 45.5718 30.9662
1 49.6366 47.7613 30.8619
1 35.4413 50.0782 30.7868
1 38.1457 49.8314 30.8128
1 40.7738 49.8975 30.7817
1 43.2629 49.9354 30.8705
1 45.8864 49.9341 30.7481
1 48.3626 49.9361 30.8489
1 44.5356 36.0354 33.0023
1 47.0082 35.99 32.9552
1 49.7166 35.7776 33.0642
1 39.4564 40.2594 32.9234
1 41.9817 40.4267 33.1083
1 40.5284 38.0485 32.9503
1 44.4445 40.3071 33.0206
1 43.1023 38.0752 33.1524
1 47.0275 40.4745 32.9812
1 45.7905 38.2191 33.0015
1 49.546 40.4981 33.0885
1 48.448 38.0533 33.1338
1 36.8094 44.8399 32.9538
1 39.3592 44.8324 32.8445
1 38.0569 42.5224 33.0461
1 42.0454 44.8613 32.8896
1 40.7083 42.5087 33.0023
1 44.5496 44.8312 32.8495
1 43.0644 42.5342 32.8483
1 47.078 44.8576 33.0108
1 45.6693 42.517 32.9669
1 49.6691 44.8762 32.9683
1 48.3893 42.679 33.0301
1 34.3611 49.2429 32.81
1 36.844 49.1421 32.9358
1 35.5775 47.1772 32.8732
1 39.4414 49.3224 32.9081
1 38.157 47.1491 32.7693
1 42.0391 49.3211 32.9752
1 40.6356 47.0061 32.8709
1 44.5862 49.1424 32.905
1 43.2699 47.0085 32.8192
1 47.1273 49.2004 32.8957
1 45.7149 47.1254 33.0659
1 49.6192 49.3206 32.9888
1 48.2288 47.1282 32.8787
1 44.5806 36.077 37.2373
1 47.2635 34.7591 35.0114
1 47.0935 35.9072 37.2442
1 49.6336 34.4716 35.1008
1 49.7809 36.1272 37.1491
1 39.3481 38.9467 35.0775
1 39.3583 40.3974 37.265
1 41.7915 38.9152 35.1614
1 42.0865 40.4175 37.194
1 40.5464 38.3187 37.4124
1 43.5436 36.9112 35.2331
1 44.4417 39.1456 35.1108
1 44.4957 40.5816 37.2149
1 43.1134 38.2407 37.1149
1 46.001 36.9203 35.0963
1 47.0782 39.2173 35.1615
1 47.1455 40.5358 37.1543
1 45.7398 38.2758 37.1091
1 48.5139 36.7778 35.1227
1 49.5328 38.8335 35.1053
1 49.776 40.359 37.0219
1 48.3422 38.2583 37.043
1 36.9018 43.3163 35.0625
1 36.8512 44.7618 37.0792
1 38.2721 41.3151 35.1483
1 39.3556 43.4739 34.9632
1 39.4186 44.8817 36.9066
1 38.0974 42.5033 37.2239
1 40.6263 41.2573 35.1052
1 41.925 43.4912 34.9189
1 41.8266 44.9692 37.1622
1 40.7634 42.5872 37.0577
1 43.1635 41.2273 35.052
1 44.5431 43.5092 34.9711
1 44.3339 44.8498 37.1678
1 43.1762 42.624 37.0695
1 45.7428 41.1986 35.1426
1 46.9446 43.3555 35.1055
1 46.9369 44.9266 37.1671
1 45.8234 42.5811 37.2614
1 48.3507 41.276 35.191
1 49.4552 43.5933 34.9929
1 49.4713 44.8876 37.2002
1 48.4279 42.6671 37.2487
1 34.1288 47.6639 34.9514
1 34.426 49.1961 37.0838
1 35.5226 45.2945 34.8618
1 36.8501 47.6961 35.0568
1 36.6688 49.3446 36.992
1 35.3121 46.6594 36.979
1 38.0263 45.5701 35.0014
1 39.3237 47.7864 34.8929
1 39.3538 49.3513 37.0056
1 38.0327 47.0932 37.0736
1 40.659 45.5645 34.9777
1 41.8294 47.741 34.9432
1 41.9335 49.4639 36.9686
1 40.668 47.1243 37.0493
1 43.271 45.5939 34.9999
1 44.3738 47.8013 35.1989
1 44.4114 49.4354 37.1441
1 43.1999 47.109 37.0564
1 45.7104 45.4949 35.059
1 46.9361 47.7878 34.8923
1 47.0375 49.4253 37.0745
1 45.8381 47.2036 37.1294
1 48.365 45.6097 35.1028
1 49.6781 47.8649 34.9664
1 49.684 49.3279 37.1297
1 48.2887 47.0915 37.1885
1 35.3125 49.9255 34.8956
1 38.1172 49.8886 34.8608
1 40.7981 49.9785 34.8522
1 43.3155 50.1272 35.0256
1 45.7861 50.0619 35.0188
1 48.3461 50.0984 35.0819
1 44.5251 36.0595 41.4258
1 47.2731 34.6225 39.4492
1 47.0922 36.0682 41.3155
1 49.8634 34.5734 39.2247
1 49.6783 36.0742 41.3386
1 39.3509 39.0042 39.4571
1 39.4903 40.4965 41.4227
1 41.9394 38.9015 39.2039
1 42.0108 40.4866 41.3868
1 40.6555 38.5041 41.383
1 43.6061 36.8221 39.3742
1 44.5767 39.0603 39.1255
1 44.4372 40.5259 41.3768
1 43.1639 38.2732 41.3178
1 45.9415 36.8227 39.2763
1 47.0124 38.9826 39.3629
1 47.0706 40.4533 41.5187
1 45.9791 38.235 41.3128
1 48.5815 36.8559 39.2416
1 49.7309 39.063 39.2737
1 49.6442 40.8294 41.3445
1 48.4987 38.3841 41.2968
1 37.0647 43.2512 39.2603
1 36.8537 44.819 41.2935
1 37.9909 41.0668 39.3009
1 39.6102 43.4302 39.106
1 39.4696 44.8013 41.2698
1 38.3009 42.7164 41.2555
1 40.7562 41.2232 39.37
1 41.9577 43.4008 39.3413
1 41.9399 44.829 41.2554
1 40.8689 42.6388 41.5053
1 43.1108 41.248 39.2182
1 44.4615 43.3577 39.3281
1 44.608 44.895 41.3595
1 43.2582 42.6784 41.2957
1 45.8716 41.0559 39.4167
1 46.993 43.5152 39.2668
1 47.1991 45.0254 41.1842
1 45.9306 42.6885 41.2519
1 48.2443 41.1878 39.2769
1 49.5599 43.5647 39.3717
1 49.6039 44.9779 41.3413
1 48.3081 42.8975 41.3617
1 34.275 47.7372 39.218
1 34.2904 49.1921 41.2559
1 35.6675 45.3975 39.2006
1 36.7591 47.7884 39.0874
1 36.7205 49.3191 41.3587
1 35.7006 46.9066 41.1895
1 38.096 45.5683 39.13
1 39.3485 47.7821 39.2529
1 39.4159 49.3479 41.4016
1 38.1797 47.0909 41.2769
1 40.6078 45.7584 39.3108
1 41.9182 47.973 39.2144
1 41.9107 49.3504 41.2222
1 40.7493 47.1954 41.2414
1 43.2184 45.6964 39.2247
1 44.467 48.0163 39.0632
1 44.4754 49.5766 41.2443
1 43.4065 47.1701 41.3173
1 45.5593 45.7153 39.1918
1 47.0247 47.9259 39.1707
1 47.0319 49.5183 41.3061
1 44.5982 48.0674 43.3957
1 50.6638 45.7332 39.0934
1 49.4562 47.8522 39.352
1 49.6614 49.5003 41.2484
1 45.8578 47.1301 41.2724
1 35.4854 49.9645 39.2054
1 38.1821 50.1119 39.3121
1 40.6189 50.1856 39.1582
1 43.1257 50.233 39.2984
1 45.7472 50.129 39.2611
1 48.2984 50.1412 39.2392
1 47.4506 34.6666 43.1652
1 49.8736 34.5563 43.3637
1 39.4111 38.9219 43.5555
1 42.0625 39.0078 43.6243
1 43.2824 36.8341 43.4486
1 44.65 38.9923 43.4055
1 45.836 36.7365 43.5656
1 47.1043 39.1488 43.5327
1 48.4791 36.8315 43.4396
1 49.8 39.19 43.4324
1 36.977 43.2854 43.3275
1 38.093 41.0623 43.3285
1 39.4151 43.503 43.4579
1 40.5088 41.1599 43.5298
1 42.1213 43.6176 43.5274
1 43.1947 41.3172 43.5465
1 44.5823 43.5365 43.4605
1 45.8723 41.1651 43.5481
1 46.9833 43.5811 43.3915
1 48.409 41.4617 43.5902
1 49.8493 43.6753 43.5278
1 34.2895 47.5566 43.4062
1 35.7219 45.5338 43.3099
1 36.83 47.7657 43.516
1 38.2002 45.5422 43.3917
1 39.2722 47.723 43.3262
1 40.7064 45.6967 43.5043
1 41.8709 48.0406 43.5333
1 43.2083 45.7146 43.4285
1 45.9198 47.2531 45.4317
1 45.9185 45.7639 43.3886
1 47.1275 48.0573 43.4496
1 48.3883 45.7931 43.1683
1 49.6532 48.1017 43.333
1 35.1376 49.9857 43.3014
1 37.9929 50.1141 43.3065
1 40.5699 50.0793 43.4689
1 43.2294 50.272 43.4768
1 45.743 50.2124 43.4006
1 48.3781 50.3208 43.4083
1 44.5127 36.1705 45.6842
1 47.2851 35.9115 45.5159
1 49.8116 36.0889 45.2261
1 39.3398 40.3106 45.7833
1 41.9421 40.6253 45.647
1 40.9835 38.2155 45.7671
1 44.5084 40.5896 45.6751
1 43.3702 38.3122 45.4725
1 47.2331 40.6996 45.5305
1 45.8529 38.2391 45.6772
1 49.7825 40.743 45.7092
1 48.4528 38.4826 45.5538
1 36.7696 44.9046 45.4469
1 39.4133 45.0154 45.569
1 38.1865 42.5463 45.5365
1 42.0329 44.9517 45.5497
1 40.5705 42.6927 45.4541
1 44.5647 45.1939 45.5636
1 43.2427 42.8664 45.5122
1 47.2747 45.028 45.612
1 45.8571 42.8608 45.5982
1 49.7054 45.0989 45.4556
1 48.4688 42.8324 45.6579
1 34.1854 48.9613 45.397
1 36.7952 49.2071 45.3396
1 35.495 47.0248 45.4809
1 39.3195 49.4243 45.583
1 38.039 47.0339 45.4809
1 41.9233 49.7251 45.6146
1 40.7872 47.2697 45.5535
1 44.5278 49.6262 45.4814
1 43.3212 47.439 45.4783
1 48.3266 51.7769 45.4598
1 47.0632 49.5611 45.4672
1 49.6389 49.5019 45.3569
1 48.4691 47.2379 45.329
1 44.4392 36.3023 49.7311
1 47.3838 34.7671 47.6688
1 47.1742 36.0965 49.9363
1 49.798 34.7853 47.4822
1 49.5462 36.1655 49.6943
1 39.3627 38.9249 47.7332
1 39.3183 40.5278 49.7909
1 41.9122 39.1498 47.8334
1 42.0615 40.6222 49.8516
1 40.8178 38.5855 49.9304
1 43.0358 36.8781 47.4984
1 44.4352 39.2196 47.7608
1 44.5667 40.5947 49.7266
1 43.257 38.3072 49.8764
1 45.8655 36.9336 47.7339
1 47.0147 39.1613 47.5191
1 47.2997 40.6384 49.8924
1 45.692 38.3496 49.7029
1 48.381 36.938 47.5058
1 49.533 39.1479 47.6163
1 49.7936 40.5047 49.7651
1 48.3025 38.3513 49.6918
1 36.843 43.3494 47.5337
1 36.6973 44.796 49.6701
1 38.1487 41.1833 47.8224
1 39.301 43.5598 47.5733
1 39.1953 44.9133 49.7047
1 38.1429 42.7355 49.9045
1 40.7595 41.4101 47.762
1 42.0422 43.5189 47.5657
1 41.9147 45.0148 49.7763
1 40.7002 42.7917 49.6545
1 43.2002 41.318 47.5596
1 44.5744 43.5642 47.6484
1 44.5073 45.1145 49.6027
1 43.2317 42.875 49.7063
1 45.787 41.3297 47.5943
1 47.2043 43.5443 47.7045
1 47.1479 44.9495 49.7668
1 45.6963 42.8228 49.6427
1 48.4466 41.424 47.7506
1 49.7852 43.6259 47.6983
1 49.8682 45.1788 49.6203
1 48.4514 42.9284 49.7909
1 34.3155 47.8153 47.4827
1 34.5011 49.3298 49.6891
1 35.343 45.3361 47.4577
1 36.6634 47.8586 47.5512
1 37.0293 49.3313 49.7755
1 35.6055 47.0434 49.6238
1 38.0758 45.5661 47.7062
1 39.2045 47.9607 47.6709
1 39.3978 49.3806 49.7813
1 38.1425 47.1301 49.6167
1 40.5688 45.756 47.6826
1 41.8321 48.0859 47.6058
1 42.1441 49.2996 49.7276
1 40.5968 47.1354 49.8067
1 43.2952 45.7278 47.5455
1 44.4754 47.8993 47.438
1 44.557 49.308 49.5322
1 43.2566 47.2979 49.5813
1 45.9181 45.8015 47.5418
1 47.2098 47.9831 47.5072
1 47.084 49.4763 49.6392
1 45.7691 47.1506 49.6112
1 48.5186 45.7192 47.7553
1 49.6545 47.9877 47.3748
1 50.9719 49.979 51.8206
1 48.3077 47.1834 49.5933
1 35.3703 49.9724 47.4381
1 37.8539 50.0989 47.4949
1 40.53 50.1282 47.7214
1 43.2109 50.2409 47.5798
1 45.82 50.1026 47.5659
1 49.7044 49.4476 49.6044
1 44.4419 35.95 54.0034
1 48.6022 34.5607 51.4085
1 47.1231 35.8111 53.8079
1 50.9434 34.4312 50.7795
1 49.7019 36.0549 53.9332
1 39.5235 39.0543 51.9118
1 39.2691 40.4439 53.7832
1 42.1572 39.1205 51.9159
1 41.9818 40.6373 53.9217
1 40.6943 38.409 54.0127
1 43.2076 36.69 51.8898
1 44.6189 39.1044 51.9113
1 43.3804 38.2712 53.9785
1 42.0183 36.2552 53.9195
1 45.6398 37.0139 52.0161
1 47.1354 39.2684 51.8927
1 47.1129 40.5915 53.977
1 45.9997 38.3671 54.0229
1 48.2594 36.8998 52.0467
1 49.5846 39.0143 51.678
1 49.6401 40.5871 53.8741
1 48.545 38.3882 53.8494
1 36.7967 43.4374 51.851
1 36.8718 44.9542 53.8265
1 38.0689 41.252 51.8807
1 39.434 43.5804 51.8029
1 39.5588 45.1061 53.8384
1 38.1632 42.8529 53.7565
1 40.6798 41.251 51.8731
1 41.9366 43.4828 51.7122
1 42.068 44.9285 53.9119
1 40.6376 42.9347 53.9353
1 43.2896 41.2946 51.715
1 44.5042 43.6261 51.8023
1 44.6308 44.8906 53.8345
1 43.3553 42.8163 53.8237
1 45.8663 41.4525 51.8145
1 47.1471 43.5801 51.7423
1 45.7936 42.9346 53.939
1 44.595 40.4558 53.8968
1 48.5964 41.2689 51.8816
1 49.7187 43.6024 51.7707
1 49.6283 45.1265 53.8423
1 48.4733 42.6882 53.915
1 34.3981 47.8273 51.8215
1 34.375 49.3908 53.85
1 35.6414 45.8567 51.8668
1 36.8667 47.9274 51.6982
1 37.0322 49.4933 53.9181
1 35.7071 47.203 53.8424
1 38.1095 45.8658 51.8261
1 39.3346 48.0271 51.9407
1 39.5968 49.3266 53.9434
1 38.1452 47.1628 53.8831
1 40.6378 45.7719 51.7907
1 41.9801 47.7723 51.9114
1 42.0209 49.3763 53.761
1 40.6901 47.1219 53.7983
1 43.2536 45.6338 51.7315
1 44.4169 47.8323 51.6972
1 44.552 49.4643 53.8892
1 43.2558 47.1185 53.9309
1 45.9084 45.8402 51.7227
1 47.0106 47.9685 51.6955
1 47.0725 49.4278 53.842
1 45.73 47.2439 53.7886
1 48.3475 45.7801 51.8171
1 49.5219 47.8884 51.7052
1 48.3958 47.1534 53.7272
1 47.0817 45.0498 53.9421
1 35.5154 50.2255 51.6774
1 38.0978 50.3075 51.835
1 40.8082 50.0792 51.7867
1 43.2455 50.166 51.6816
1 45.8173 50.1181 51.6434
1 48.4229 50.1627 51.8322
1 44.3443 35.7296 58.0949
1 48.7222 33.9639 53.8657
1 47.0943 35.893 58.0903
1 49.6115 34.446 56.0073
1 49.5831 35.8774 58.0331
1 39.1516 39.1787 55.9752
1 39.3155 40.498 57.9598
1 42.1577 38.9982 56.0177
1 42.2812 40.535 58.0013
1 40.7766 38.5334 57.8787
1 40.7605 36.8857 55.9751
1 43.1569 36.7382 56.0765
1 44.6536 40.5784 57.9938
1 43.4148 38.2049 58.1394
1 45.7584 36.6862 56.0316
1 47.3 39.1087 56.1099
1 47.0766 40.4529 58.2168
1 45.9543 38.1093 57.9739
1 48.4383 36.8197 56.0021
1 49.7768 39.1397 55.9115
1 49.5765 40.6213 57.8623
1 48.5509 38.2855 58.0999
1 36.7557 43.3871 55.7096
1 36.8304 44.8737 58.0001
1 38.3287 41.4387 55.8693
1 39.5335 43.6469 56.0036
1 39.3592 44.8503 58.0937
1 38.0543 42.7655 57.9455
1 40.6705 41.2079 55.8977
1 42.1435 43.4667 55.926
1 42.0606 44.9684 57.8148
1 40.5821 42.7103 57.7784
1 43.3567 41.3609 55.9816
1 44.6109 43.488 55.9722
1 44.5775 45.005 58.0528
1 43.2651 42.847 57.9495
1 44.5521 39.0378 56.0598
1 45.9819 41.3653 56.0105
1 47.2003 44.9018 57.8653
1 45.7991 42.7939 58.1495
1 48.5073 41.353 55.9663
1 49.8115 43.4164 56.0747
1 49.7394 44.894 58.034
1 48.3812 42.7944 57.9681
1 34.298 47.9988 55.8744
1 34.2232 49.4425 58.0389
1 35.4059 45.626 55.9112
1 36.6669 48.0098 55.9123
1 36.8428 49.4382 58.1414
1 35.562 47.0859 57.9969
1 38.2105 45.6718 56.0286
1 39.4111 47.9681 55.8949
1 39.5858 49.2876 58.0193
1 38.1552 47.1903 58.131
1 40.9375 45.8027 55.9636
1 42.031 47.9975 55.9522
1 42.1887 49.286 58.0622
1 40.7081 47.0614 58.1219
1 43.4262 45.6498 55.9473
1 44.5547 47.8569 55.9034
1 44.6086 49.3115 58.2028
1 43.2628 47.1858 57.9502
1 45.8605 45.6323 55.9492
1 47.1438 47.7903 55.8767
1 47.2023 49.3354 58.1108
1 45.9109 47.1641 58.0102
1 47.0909 43.4202 55.905
1 48.3585 45.6264 55.7981
1 49.7784 49.3126 58.0063
1 48.5321 47.0883 58.0082
1 35.5964 50.1632 56.1683
1 38.1768 50.1717 56.0416
1 40.6344 50.2692 56.005
1 43.345 50.1815 55.994
1 45.8622 49.9352 55.9395
1 48.5508 50.1744 55.9994
1 44.5132 36.1133 62.2206
1 47.3697 34.7694 60.12
1 47.1425 35.9538 62.1983
1 49.7137 34.4202 59.9847
1 49.7654 35.9854 62.1319
1 39.3042 39.0856 59.9423
1 39.3503 40.608 62.0227
1 42.1451 39.0255 60.0213
1 42.1491 40.4879 62.162
1 40.7646 38.4956 62.1583
1 43.1561 36.6679 60.0085
1 44.553 39.1089 60.0779
1 44.7226 40.3486 62.2772
1 43.256 38.2058 62.1425
1 45.6419 36.7619 60.1607
1 47.0785 39.0114 60.0738
1 47.253 40.4917 62.1623
1 46.0197 38.1621 62.0938
1 48.4699 37.0212 60.1417
1 49.744 39.2128 60.1202
1 49.7493 40.5884 62.191
1 48.5358 38.4597 62.122
1 37.0121 43.5058 60.0381
1 36.8406 44.9283 62.2507
1 37.8649 41.2048 59.8975
1 39.3623 43.2554 60.1606
1 39.3773 44.749 62.2549
1 38.0526 42.6344 62.0261
1 40.867 41.2203 59.992
1 41.9021 43.4739 60.0535
1 42.0109 44.9247 62.2396
1 40.8022 42.5802 62.0385
1 43.3723 41.4599 60.0437
1 44.6286 43.4296 60.1518
1 44.7379 44.8586 62.1908
1 43.2791 42.6751 62.2646
1 45.9196 41.2497 60.1945
1 47.1897 43.4268 60.1917
1 47.2405 44.9591 62.3237
1 45.942 42.7152 62.2222
1 48.3951 41.3525 60.1463
1 49.6828 43.4455 60.0436
1 49.7803 44.9163 62.1257
1 48.3501 42.7581 62.3419
1 34.4936 47.8796 59.9966
1 34.3407 49.2073 62.2259
1 35.8446 45.7932 60.131
1 36.9096 48.0651 60.0657
1 36.9519 49.2625 62.2612
1 35.6189 47.0968 62.274
1 38.2371 45.6696 60.1765
1 39.4147 47.9072 60.1146
1 39.4898 49.151 62.222
1 38.0785 46.9717 62.1452
1 40.7311 45.6053 60.1528
1 41.999 47.8289 60.0168
1 42.1398 49.3803 62.2728
1 40.7355 47.1617 62.3227
1 43.2313 45.5304 60.1027
1 44.5827 47.7594 59.9775
1 44.7141 49.2963 62.2836
1 43.3168 47.1836 62.1627
1 45.969 45.6057 60.1566
1 47.3697 47.8673 60.1121
1 47.2658 49.4173 62.2317
1 45.9239 46.945 62.2594
1 48.5801 45.7079 60.1785
1 49.6806 47.7614 60.1021
1 49.7955 49.2673 62.1469
1 48.5113 47.1928 62.2239
1 35.7124 50.0865 60.2797
1 38.0242 50.2959 60.1703
1 40.7772 50.1206 60.2448
1 43.4236 50.1565 60.1757
1 45.8413 50.0007 60.0738
1 48.546 50.0783 60.2597
1 44.6253 35.9492 66.4213
1 47.2501 34.5235 63.9711
1 47.3923 35.8345 66.2278
1 49.8771 34.6995 64.2281
1 49.9018 36.0591 66.2664
1 39.59 39.1933 64.2785
1 39.3918 40.5956 66.256
1 42.0465 38.8091 64.2618
1 42.0828 40.374 66.242
1 40.8319 38.2168 66.2782
1 43.5152 36.736 64.4881
1 44.6893 38.779 64.1959
1 44.6201 40.4232 66.348
1 43.3876 38.1862 66.522
1 46.0531 36.699 64.3716
1 47.2116 38.9092 64.1855
1 47.2981 40.4621 66.3957
1 46.0713 38.2157 66.5553
1 48.5579 36.8376 64.0285
1 49.8651 39.1546 64.3593
1 49.9229 40.4866 66.5074
1 48.5041 38.3862 66.4045
1 36.9937 43.5645 64.2859
1 36.9243 45.0186 66.4887
1 38.3196 41.3914 64.0943
1 39.5764 43.4112 64.1689
1 39.6897 44.7517 66.4576
1 38.1595 42.7107 66.4276
1 41.0313 41.2763 64.2933
1 42.1084 43.3954 64.3145
1 42.2664 44.9718 66.3668
1 40.9002 42.5738 66.4249
1 43.5257 41.0252 64.2308
1 44.7632 43.4585 64.1735
1 44.821 44.8269 66.5088
1 43.3413 42.6074 66.203
1 46.0878 41.2602 64.3023
1 47.2661 43.5021 64.3567
1 47.2389 44.9351 66.2664
1 45.9104 42.6226 66.2613
1 48.5198 41.0424 64.3751
1 49.6565 43.5398 64.1494
1 49.9371 44.9257 66.2894
1 48.6376 42.7352 66.507
1 34.174 47.7784 64.3642
1 34.587 49.2377 66.525
1 35.7326 45.59 64.2697
1 37.0841 47.732 64.4394
1 37.0361 49.1937 66.4659
1 35.6015 46.9637 66.4358
1 38.1969 45.6406 64.3771
1 39.5742 47.8706 64.2998
1 39.6483 49.2296 66.4707
1 38.3712 47.0308 66.6624
1 40.8621 45.6253 64.3976
1 42.1527 47.9052 64.4111
1 42.0922 49.3551 66.5048
1 40.8558 47.0389 66.5778
1 43.432 45.7778 64.3229
1 44.6918 47.8667 64.4745
1 44.7107 49.1286 66.568
1 43.5035 47.1312 66.4227
1 45.9126 45.6252 64.2948
1 47.1815 47.8847 64.3385
1 47.1966 49.1482 66.5188
1 46.0151 47.0133 66.3959
1 48.5269 45.6727 64.2005
1 49.8269 47.8207 64.3184
1 49.7341 49.2511 66.3996
1 48.4789 47.0184 66.4519
1 35.7921 50.1189 64.356
1 38.3174 50.0489 64.288
1 40.7871 50.0915 64.3088
1 43.2561 50.0584 64.4526
1 45.9538 49.9829 64.4856
1 48.3898 50.0761 64.273
1 44.5529 36.072 70.3879
1 47.9027 34.4696 68.3448
1 47.6571 36.0346 70.4474
1 50.27 34.6214 68.3349
1 49.9762 35.9167 70.6113
1 39.6658 39.1857 68.3035
1 39.6744 40.2413 70.5735
1 42.1014 38.9919 68.474
1 42.0357 40.3138 70.7478
1 40.6693 37.7938 70.1175
1 43.5421 36.9363 68.4151
1 44.7419 39.0763 68.4562
1 44.6068 40.374 70.6278
1 43.3404 38.1161 70.6242
1 46.1473 36.6608 68.3917
1 47.2735 39.0324 68.5183
1 47.3305 40.2485 70.6146
1 46.072 38.132 70.5312
1 48.7829 36.8534 68.3365
1 49.8205 38.9718 68.6007
1 50.0104 40.4265 70.5277
1 48.6949 38.0854 70.6454
1 36.9079 43.4022 68.3824
1 36.7259 44.6819 70.394
1 38.1034 41.0617 68.5164
1 39.3176 43.3024 68.6278
1 39.4204 44.9281 70.5809
1 38.2761 42.5441 70.6338
1 40.9609 41.1235 68.5396
1 42.0498 43.3829 68.4133
1 42.0943 44.7429 70.5503
1 40.8632 42.726 70.598
1 43.3479 41.2492 68.322
1 44.6382 43.2358 68.3914
1 44.7608 44.8273 70.7602
1 43.2294 42.6823 70.6235
1 45.9344 41.1318 68.5783
1 47.2475 43.3754 68.4065
1 47.2726 44.8248 70.5824
1 45.9624 42.431 70.506
1 48.6939 41.2035 68.4526
1 49.7804 43.4319 68.5216
1 49.7104 44.9978 70.6548
1 48.4962 42.5748 70.737
1 34.5492 47.8956 68.6863
1 34.698 49.1919 70.7081
1 35.5024 45.565 68.3807
1 36.982 47.9128 68.6531
1 36.9833 49.2357 70.7084
1 35.5833 46.9139 70.6893
1 38.2966 45.6807 68.545
1 39.6218 47.8889 68.5822
1 39.6103 49.3645 70.6999
1 38.1366 47.1244 70.5386
1 40.8268 45.5059 68.6101
1 42.0924 47.6802 68.5439
1 41.9285 49.1551 70.6312
1 40.7053 46.9968 70.6284
1 43.3112 45.4684 68.5518
1 44.6864 47.5531 68.6256
1 44.5242 48.9502 70.7853
1 43.3384 46.7852 70.6383
1 45.9479 45.4888 68.4569
1 47.2215 47.7522 68.6573
1 47.2428 49.2168 70.6133
1 45.8758 46.9348 70.6294
1 48.595 45.7307 68.3741
1 49.7505 47.7385 68.4547
1 49.7947 49.4507 70.789
1 48.561 47.0374 70.637
1 35.8842 49.9909 68.5045
1 38.4519 50.0369 68.6324
1 40.8636 50.0546 68.4736
1 43.2638 49.9032 68.7456
1 45.791 49.8872 68.5739
1 48.4875 49.9954 68.5367
1 44.5627 35.7664 74.7947
1 47.6205 34.647 72.3084
1 47.1969 35.7799 74.6458
1 50.1976 34.6963 72.8364
1 49.8889 35.8764 74.7653
1 39.9956 38.884 72.6292
1 39.5548 40.281 74.7954
1 42.2973 38.8128 72.8067
1 42.1706 40.2437 74.8425
1 40.9897 38.2123 74.8334
1 43.7516 36.6961 72.6724
1 45.0094 39.0076 72.7312
1 44.7852 40.5166 74.8145
1 43.5596 38.1058 74.8897
1 46.1532 36.469 72.4147
1 47.4124 38.7431 72.6452
1 47.2613 40.3776 74.7575
1 46.0739 38.0648 74.7064
1 48.643 36.6781 72.6825
1 49.8844 39.0393 72.7384
1 50.0926 40.4313 74.7088
1 48.6766 38.2538 74.7286
1 36.9792 43.2637 72.7592
1 36.9587 44.625 74.8156
1 38.4158 40.9218 72.5002
1 39.5685 43.3563 72.5181
1 39.5468 44.7868 74.745