5538
Atoms. Timestep: 10000
1 46.1052 40.8233 9.00378
1 46.838 38.4523 9.1418
1 45.8388 37.317 10.9934
1 49.1041 37.9453 8.42482
1 48.314 36.6725 10.391
1 41.476 40.2016 7.91382
1 40.0315 41.4338 9.41906
1 42.0429 38.3862 11.123
1 42.2047 40.5812 10.255
1 43.8087 40.7783 8.20814
1 45.046 43.1283 8.53492
1 41.3769 40.9169 12.4237
1 45.2565 40.4887 11.9359
1 47.2844 43.0272 9.91417
1 44.3959 39.0515 10.0117
1 47.4364 40.1237 10.9709
1 46.9189 40.7508 13.9924
1 44.1068 38.0158 12.4152
1 45.7657 36.3029 13.1391
1 49.9651 35.768 14.2721
1 47.7638 37.8991 12.4275
1 47.9568 35.4318 12.5343
1 38.3395 45.7715 9.5984
1 36.0044 44.2984 9.22138
1 37.9369 42.6916 8.89663
1 39.1267 41.9728 11.6941
1 39.7651 44.317 12.3786
1 37.7722 43.9 10.9875
1 40.2306 39.0217 9.54264
1 41.6916 42.9683 10.9371
1 40.6035 45.9953 10.6897
1 39.8857 44.0795 9.57034
1 44.0572 42.1553 10.5043
1 46.2238 44.4227 14.0146
1 43.6295 44.4332 10.0529
1 43.3303 42.2874 12.7937
1 45.0043 42.1348 14.4314
1 47.3954 44.4911 11.6593
1 45.9142 45.3905 9.67113
1 45.599 42.8238 12.2455
1 49.1459 40.0438 12.7859
1 50.0525 43.8613 11.5621
1 48.0925 46.4651 9.93678
1 48.102 42.1923 12.1981
1 37.624 48.0247 9.64478
1 38.1386 50.2507 10.3896
1 37.6531 44.6655 7.65702
1 35.9363 46.3341 10.1353
1 34.2662 46.6003 11.9912
1 36.6986 46.6724 7.73109
1 36.1897 44.8412 12.1709
1 39.2681 48.2495 11.201
1 37.7886 49.6682 12.8609
1 38.2602 46.204 11.9795
1 40.7478 45.5216 14.1523
1 42.4307 49.3867 11.9699
1 41.5021 52.5475 11.9759
1 41.3944 47.3749 12.4042
1 42.3223 45.1022 12.1691
1 43.426 48.2493 8.48344
1 43.7878 49.8151 10.2697
1 41.3756 48.4361 9.95696
1 42.9394 46.656 10.4587
1 44.8902 45.1599 12.0579
1 45.9678 49.2812 11.767
1 45.1779 47.5241 10.2176
1 48.5564 44.1307 13.7312
1 49.2521 46.1316 12.3547
1 49.8957 49.2844 14.1705
1 46.5284 46.892 12.0098
1 36.3511 47.8942 12.1151
1 35.299 49.7959 13.4567
1 40.2616 50.3005 11.5101
1 43.1372 52.3355 10.2799
1 44.032 47.5461 12.2457
1 48.2699 48.7222 12.6843
1 41.5321 34.5733 18.348
1 47.6086 32.8241 17.1231
1 45.3675 33.4262 16.6302
1 50.2315 32.644 17.2911
1 49.0467 34.727 16.4338
1 40.621 36.4575 17.4976
1 39.0426 38.597 17.3181
1 41.4199 37.4787 15.4789
1 40.2668 39.6172 15.3587
1 42.7034 35.9559 19.9199
1 42.7262 35.5988 16.4034
1 41.8576 38.7802 13.5367
1 44.0811 39.9419 13.7634
1 43.3408 36.6434 14.013
1 43.9521 34.4729 18.1991
1 46.1266 37.6735 16.3666
1 45.9039 38.5529 13.9608
1 45.1461 35.4703 15.3269
1 46.7419 35.3417 17.0696
1 48.6835 37.1386 16.9063
1 48.2674 38.5806 14.7615
1 47.618 36.1145 14.9452
1 34.7081 42.838 16.8725
1 37.6624 43.3201 13.5436
1 36.9711 38.7869 18.5072
1 38.2272 42.9133 15.8657
1 38.3454 45.3879 14.271
1 35.9402 40.8107 17.1154
1 38.0311 40.4267 15.8343
1 40.7453 42.8086 16.146
1 41.4005 43.1334 13.7525
1 39.5506 41.5513 14.1613
1 42.1677 39.5208 16.8215
1 43.2748 42.692 16.1563
1 43.6478 44.3408 14.1275
1 42.0631 41.1296 14.9661
1 44.046 38.1647 15.7739
1 46.9892 42.5416 15.8152
1 45.182 44.0802 16.2427
1 44.6247 40.4251 16.1372
1 47.0047 40.1843 16.2683
1 49.1845 43.8239 15.9529
1 50.9382 44.6336 13.8691
1 49.2505 41.9014 14.5731
1 33.7059 45.2266 16.0379
1 33.0567 47.6813 16.159
1 35.3828 44.1458 14.604
1 35.4692 47.1786 16.2405
1 34.9727 49.5505 15.7198
1 34.1667 47.5812 14.0832
1 36.7642 44.9364 16.1467
1 38.1439 46.9912 16.1565
1 37.1347 48.6915 14.7956
1 36.398 46.4897 13.9512
1 39.5405 44.7616 16.1441
1 40.7729 47.1871 16.0852
1 41.614 48.8095 14.3491
1 39.316 47.777 13.8395
1 42.0881 45.0192 16.0659
1 42.8282 48.3745 16.3486
1 44.043 49.1358 14.1339
1 42.8497 46.5513 14.2622
1 44.3182 46.2001 16.2115
1 46.2557 47.2861 16.1247
1 46.4749 49.0125 14.3409
1 45.22 46.8793 14.0794
1 47.3247 45.1034 16.195
1 49.4253 46.3839 15.977
1 48.2411 48.59 16.1722
1 47.6223 46.5605 14.2587
1 33.1089 49.9169 17.3715
1 37.0399 50.6301 16.1651
1 39.3234 49.1937 16.0451
1 41.4941 50.5772 16.1386
1 44.9434 49.2759 16.3514
1 46.8621 50.7509 16.3116
1 44.9084 35.3215 20.4813
1 46.1244 33.6622 18.8837
1 47.1909 35.0235 20.7777
1 48.598 34.4111 18.8422
1 49.7797 34.9532 20.9649
1 38.8102 38.0969 19.8587
1 39.6125 40.3676 20.1558
1 41.0491 38.7299 18.7896
1 41.9249 40.4176 20.2992
1 40.9649 37.4745 20.8333
1 42.8905 37.3522 17.9137
1 44.7545 39.0056 18.2027
1 44.5951 40.4474 20.2693
1 43.245 38.3183 20.1499
1 45.0345 36.3635 18.2103
1 47.1183 38.8293 18.2595
1 47.1955 40.4122 20.1476
1 45.8824 38.0353 20.2382
1 47.3843 36.5777 18.9492
1 49.5148 39.0807 18.2773
1 49.7125 40.4317 20.444
1 48.4759 38.1489 20.4025
1 36.8429 43.0854 17.8625
1 36.5865 44.6655 20.1431
1 38.247 40.7819 18.3764
1 39.1883 43.2331 18.1208
1 39.1663 44.6787 20.3948
1 37.9966 42.4239 20.1656
1 40.6782 41.2303 18.1643
1 41.8186 43.4204 18.1845
1 41.9016 44.7615 20.4118
1 40.6388 42.515 20.2425
1 43.256 41.2841 18.2391
1 44.4277 43.4839 18.3703
1 44.6255 44.8556 20.3747
1 43.274 42.6301 20.3776
1 45.8979 41.2616 18.1711
1 47.0455 43.6991 18.1538
1 47.0475 44.8623 20.2528
1 45.9074 42.7305 20.3176
1 48.4465 41.2045 18.1125
1 49.6428 43.5093 18.2397
1 49.599 44.8348 20.3718
1 48.2611 42.6091 20.241
1 34.2513 47.8391 18.2423
1 34.3669 49.1654 20.4586
1 35.4394 45.4134 18.0315
1 36.6829 47.6497 18.1804
1 36.8286 49.0472 20.3991
1 35.3878 46.7993 20.2611
1 37.9933 45.4407 18.1295
1 39.3123 47.7319 18.2652
1 39.3216 49.1413 20.27
1 37.9033 46.8748 20.3118
1 40.6251 45.5748 18.251
1 41.9226 47.5182 18.393
1 41.9044 49.1372 20.3426
1 40.5364 46.8897 20.4111
1 43.1053 45.5894 18.34
1 44.3884 47.7381 18.3598
1 44.4661 49.1859 20.3421
1 43.0672 47.0313 20.3927
1 45.8322 45.7333 18.3366
1 46.9928 47.7898 18.4605
1 47.0371 49.346 20.3542
1 45.621 47.1216 20.4377
1 48.4385 45.783 18.2865
1 49.5668 47.9007 18.1911
1 49.455 49.3182 20.3056
1 48.3165 46.9518 20.4022
1 35.4883 49.8935 18.2815
1 38.1312 49.9404 18.228
1 40.5524 49.9462 18.3022
1 43.1195 49.9132 18.1451
1 45.6106 50.0576 18.3818
1 48.0904 49.9575 18.2449
1 44.5345 35.9548 24.487
1 48.2864 34.2885 22.917
1 47.1223 35.7907 24.4518
1 50.9476 34.3259 22.9974
1 49.7467 35.9384 24.4431
1 39.6875 38.9433 22.3134
1 38.6258 39.8993 24.3744
1 42.2837 38.9396 22.3006
1 42.1039 40.3553 24.5538
1 40.5951 38.4031 24.4736
1 43.4695 36.6333 22.3008
1 44.7248 38.8911 22.3307
1 44.6177 40.3573 24.4885
1 43.2315 37.9862 24.4461
1 46.0499 36.5627 22.45
1 47.165 38.9355 22.3127
1 47.2062 40.268 24.4985
1 45.7538 38.1743 24.3625
1 48.4846 36.6918 22.2151
1 49.6661 38.9974 22.4151
1 49.6753 40.4398 24.5316
1 48.3772 38.013 24.422
1 37.102 43.4512 22.3527
1 36.8782 44.5817 24.5951
1 38.3946 41.1124 22.2471
1 39.5844 43.2802 22.4141
1 39.1838 44.7232 24.5826
1 38.0517 42.4035 24.5767
1 40.9051 41.0289 22.2929
1 42.0228 43.3131 22.3813
1 41.9153 44.8298 24.5051
1 40.7482 42.5139 24.5355
1 43.4576 41.125 22.3408
1 44.4743 43.2947 22.4355
1 44.4746 44.8011 24.4935
1 43.2214 42.4879 24.425
1 45.9615 41.187 22.2844
1 47.0663 43.3757 22.4667
1 47.0137 44.8718 24.4806
1 45.8 42.5567 24.4206
1 48.2724 41.2829 22.352
1 49.636 43.2246 22.3678
1 49.6464 44.6917 24.434
1 48.3734 42.6558 24.4926
1 34.2859 47.5959 22.4275
1 34.6014 48.9819 24.4849
1 35.8756 45.4781 22.4962
1 36.846 47.6699 22.481
1 36.8244 49.1197 24.4807
1 35.5427 46.7999 24.4552
1 38.2569 45.5881 22.4686
1 39.4505 47.7279 22.5131
1 39.2764 49.192 24.5498
1 38.0094 47.0436 24.5702
1 40.7606 45.3888 22.4791
1 41.8813 47.6476 22.5246
1 41.8497 49.0836 24.5467
1 40.6569 46.9856 24.6596
1 43.3263 45.563 22.269
1 44.3717 47.6971 22.4244
1 44.5686 49.1158 24.6221
1 43.1233 46.8817 24.4291
1 45.7269 45.6208 22.488
1 46.9468 47.6642 22.4689
1 46.947 49.2035 24.5081
1 45.6807 46.9469 24.4584
1 48.2725 45.633 22.3958
1 49.5648 47.7602 22.4386
1 49.7882 49.0664 24.6504
1 48.344 46.9103 24.587
1 35.5724 50.05 22.4344
1 38.0217 49.9837 22.2967
1 40.6791 49.904 22.3774
1 43.178 49.9461 22.4257
1 45.6616 49.8268 22.3399
1 48.3984 49.9268 22.5214
1 44.66 35.78 28.6586
1 47.5027 34.4616 26.5744
1 47.2032 35.7978 28.6012
1 49.9242 34.6004 26.633
1 49.8342 35.87 28.6108
1 39.4264 38.8677 26.6506
1 39.2653 40.1822 28.7482
1 42.0107 38.6621 26.5396
1 41.9725 40.3475 28.7566
1 40.7076 38.1799 28.7337
1 43.3805 36.7494 26.7436
1 44.6244 38.8659 26.5887
1 44.5274 40.2797 28.5407
1 43.2691 38.0785 28.7512
1 45.8392 36.6451 26.6555
1 47.1465 38.6882 26.4778
1 47.128 40.2241 28.6413
1 45.8408 38.2127 28.7822
1 48.505 36.6312 26.5092
1 49.7407 38.9645 26.5792
1 49.6773 40.3336 28.8961
1 48.2487 38.1334 28.6346
1 37.0082 43.246 26.6473
1 36.9288 44.5098 28.7843
1 38.2709 41.0511 26.7315
1 39.4362 43.3255 26.6291
1 39.3134 44.629 28.733
1 38.1973 42.3437 28.7833
1 40.6554 40.9939 26.6298
1 41.9588 43.312 26.5995
1 42.1016 44.6818 28.5694
1 40.6265 42.4845 28.7653
1 43.2867 40.9899 26.7661
1 44.5111 43.2505 26.5965
1 44.5551 44.6731 28.5565
1 43.1876 42.446 28.7097
1 45.8473 41.0242 26.4418
1 47.2226 43.2256 26.4871
1 47.1766 44.7108 28.6745
1 45.7787 42.4951 28.672
1 48.4621 41.0867 26.609
1 49.8131 43.3107 26.503
1 49.8488 44.7838 28.635
1 48.456 42.4864 28.7005
1 34.3478 47.7255 26.7389
1 34.5905 48.8923 28.8257
1 35.7968 45.5178 26.6765
1 36.9102 47.6445 26.5726
1 36.7209 48.9125 28.9063
1 35.296 46.389 28.8155
1 38.2057 45.4165 26.6769
1 39.3496 47.6837 26.6972
1 39.3291 48.9653 28.7718
1 37.951 46.9361 28.7517
1 40.7302 45.3738 26.7309
1 41.9586 47.7919 26.6712
1 41.8982 49.0787 28.8537
1 40.7008 46.8861 28.8414
1 43.2983 45.523 26.5989
1 44.388 47.8609 26.664
1 44.4589 49.2452 28.6402
1 43.296 46.9423 28.6873
1 45.8306 45.4651 26.5489
1 47.003 47.6002 26.5712
1 46.9497 49.3115 28.7072
1 45.9187 46.9666 28.6786
1 48.3428 45.405 26.5636
1 49.6949 47.6301 26.461
1 49.5631 49.0715 28.7612
1 48.4139 46.9934 28.6654
1 35.7099 50.0038 26.7302
1 38.1214 49.9189 26.7544
1 40.5575 49.9113 26.6206
1 42.9399 50.0212 26.7102
1 45.6481 49.8532 26.5956
1 48.2638 49.8397 26.6384
1 47.3383 34.361 30.6603
1 49.7738 34.5253 30.7192
1 39.6718 38.9131 31.1029
1 42.2003 38.635 30.7214
1 43.5075 36.6113 30.6681
1 44.8051 38.8175 30.843
1 45.8018 36.5801 30.777
1 47.3055 38.8294 30.7333
1 48.5624 36.6657 30.7003
1 49.8629 38.8485 30.7235
1 36.9231 43.3152 30.9972
1 38.3948 41.0791 30.9127
1 39.4737 43.2764 30.8675
1 40.8749 41.026 30.685
1 42.0799 43.241 30.9686
1 43.3124 41.0258 30.749
1 44.605 43.186 30.6533
1 45.9422 40.9108 30.729
1 47.2221 43.3865 30.6721
1 48.4349 41.0248 30.8087
1 49.7473 43.2232 30.9108
1 34.4271 47.6673 30.8923
1 35.6316 45.4519 30.99
1 36.8666 47.6699 30.9143
1 38.1768 45.5122 30.85
1 39.4395 47.5629 30.7207
1 40.8156 45.3039 30.8512
1 41.9737 47.511 30.6872
1 43.3136 45.5322 30.669
1 44.568 47.8513 30.8879
1 45.7625 45.491 30.7158
1 47.0561 47.7411 30.7814
1 48.3404 45.5386 30.8119
1 49.672 47.7751 30.7998
1 35.429 49.8723 30.9769
1 38.1664 49.7069 30.8708
1 40.7215 49.7952 30.9055
1 43.267 50.0419 31.0138
1 45.7891 49.9421 30.868
1 48.3879 49.8682 30.7726
1 44.6452 36.038 32.9141
1 47.2526 35.8334 32.8805
1 49.8939 35.7791 32.8601
1 39.4685 40.3855 33.0042
1 42.0239 40.3342 32.818
1 40.9763 38.2862 33.1299
1 44.6014 40.4185 32.759
1 43.3445 38.1496 32.972
1 47.2167 40.2126 32.8842
1 45.9479 38.1627 32.9552
1 49.6714 40.2914 32.8471
1 48.556 38.0215 33.021
1 36.4493 44.4341 33.0893
1 39.4037 44.6274 32.9049
1 38.2355 42.7124 33.0793
1 42.031 44.7801 32.8257
1 40.9314 42.3875 32.8567
1 44.6599 44.7242 32.7101
1 43.4894 42.5972 32.9152
1 47.069 44.7519 32.8808
1 45.934 42.5029 32.8762
1 49.6967 44.8325 32.9515
1 48.3788 42.5521 32.9372
1 34.399 48.9478 33.2272
1 36.8308 48.9923 33.075
1 35.3729 46.6489 33.058
1 39.4276 49.1439 32.9946
1 38.115 46.886 32.8747
1 42.0678 49.1859 32.9454
1 40.6611 46.9137 32.7461
1 44.6202 49.206 33.0872
1 43.3635 47.011 32.8478
1 47.1441 49.3407 32.9228
1 46.1202 47.0886 32.9955
1 49.7663 49.0852 32.9832
1 48.5342 46.9886 32.9043
1 44.6496 35.8575 37.0822
1 47.4328 34.4223 35.0323
1 47.164 35.8751 37.0843
1 49.8457 34.4086 35.1398
1 49.8189 35.8396 37.2616
1 39.6906 38.9406 34.9943
1 39.3605 40.3322 37.2573
1 42.3289 38.7468 35.1192
1 42.2812 40.3134 37.0603
1 40.8194 38.386 36.9961
1 43.6616 36.6671 35.0986
1 44.6972 38.7368 35.019
1 44.627 40.2235 36.9455
1 43.4111 37.8413 37.2581
1 45.9844 36.4679 34.9858
1 47.2861 38.6916 34.9368
1 47.318 40.1657 37.1523
1 45.7956 38.0922 36.9919
1 48.5033 36.6768 34.9767
1 49.8144 38.8714 34.8727
1 49.8686 40.3164 37.1395
1 48.5215 37.9708 37.2388
1 36.9704 43.0009 35.2052
1 36.8831 44.4742 37.1123
1 38.2898 40.9713 35.1216
1 39.5431 43.2064 34.9935
1 39.6233 44.6949 37.0901
1 38.2937 42.5031 37.1082
1 40.9373 40.9121 35.1601
1 42.121 43.1323 34.9629
1 42.1249 44.613 37.0452
1 40.9039 42.4188 37.2132
1 43.4084 40.9837 34.8917
1 44.6589 43.2394 34.9382
1 44.6261 44.7818 37.0548
1 43.4641 42.5051 37.06
1 45.8694 40.9159 34.8897
1 47.2524 43.2155 35.0175
1 47.1207 44.8636 37.1173
1 46.0717 42.505 37.1229
1 48.5453 41.089 35.0653
1 49.8025 43.2624 35.073
1 49.6933 44.8282 37.1314
1 48.5218 42.572 37.1666
1 34.5135 47.4512 35.1911
1 34.4778 48.977 37.1422
1 35.3745 45.1991 35.1483
1 37.0238 47.5691 34.895
1 36.8839 48.9146 37.0652
1 35.3987 46.5462 37.2448
1 38.1442 45.2775 34.9161
1 39.5199 47.5427 35.0547
1 39.3651 48.7875 37.0939
1 37.9701 46.6191 37.09
1 40.6741 45.4294 34.8756
1 41.9219 47.6724 34.9251
1 41.9788 49.0551 37.118
1 40.8904 46.828 37.103
1 43.3533 45.5101 34.7552
1 44.6619 47.8253 34.8738
1 44.6061 49.1816 37.2111
1 43.3891 46.9182 37.0295
1 45.7725 45.5671 34.9562
1 47.2013 47.6606 35.0144
1 46.9878 49.2245 37.0786
1 45.725 47.0909 37.2014
1 48.5126 45.5192 34.9224
1 49.7989 47.6129 34.9975
1 49.638 49.1324 37.0155
1 48.439 47.049 37.2225
1 35.479 49.7574 35.241
1 38.1099 49.7298 35.0624
1 40.62 49.6894 35.1749
1 43.2277 49.8677 35.0891
1 45.7206 50.1249 35.0915
1 48.2934 49.9 35.0174
1 44.554 35.6188 41.3286
1 47.0944 34.3434 39.2715
1 47.1429 35.8187 41.2259
1 49.7239 34.4152 39.3546
1 49.7376 35.6702 41.347
1 39.5111 38.793 39.3282
1 39.4039 40.0988 41.4109
1 42.0508 38.7205 39.1746
1 42.2225 40.1986 41.4133
1 40.926 38.096 41.4706
1 43.3291 36.3781 39.1501
1 44.6012 38.7264 39.1996
1 44.7722 40.3402 41.3314
1 43.4304 37.8404 41.2233
1 45.7536 36.7197 39.2383
1 47.1931 38.8183 39.1849
1 47.237 40.2335 41.3748
1 46.0694 38.0978 41.3227
1 48.4004 36.5858 39.2695
1 49.8694 38.9943 39.2307
1 49.7118 40.1757 41.215
1 48.6227 37.9359 41.2598
1 36.9591 43.1258 39.2036
1 36.727 44.4091 41.285
1 38.011 40.8895 39.2906
1 39.5307 43.1104 39.1625
1 39.3162 44.5477 41.389
1 38.1093 42.3186 41.3429
1 40.8828 40.8292 39.3307
1 41.911 43.2177 39.1846
1 42.029 44.647 41.3708
1 40.6321 42.3283 41.205
1 43.5399 41.0733 39.1965
1 44.6659 43.1932 39.1311
1 44.6776 44.7465 41.3506
1 43.4066 42.4638 41.3081
1 45.9135 41.088 39.1769
1 47.2847 43.4175 39.2266
1 47.1669 44.6942 41.2959
1 45.8029 42.5258 41.2409
1 48.4209 41.0151 39.2797
1 49.6585 43.3178 39.2356
1 49.5857 44.7683 41.2278
1 48.5641 42.3803 41.2891
1 34.1593 47.5365 39.2856
1 34.0499 49.0527 41.3957
1 35.435 45.1271 39.212
1 36.8237 47.5118 39.2371
1 37.0396 49.0159 41.3234
1 35.5816 46.7548 41.347
1 38.1431 45.2266 39.2078
1 39.4963 47.3925 39.0934
1 39.4694 48.9062 41.2836
1 38.0209 46.7135 41.266
1 40.7885 45.2931 39.2787
1 42.1053 47.6333 39.1553
1 42.0678 48.9315 41.3843
1 40.6681 46.7714 41.2461
1 43.4801 45.4572 39.317
1 44.6387 47.7659 39.2764
1 44.6762 49.1308 41.4366
1 43.2144 46.7552 41.2362
1 45.9735 45.6892 39.1538
1 47.2892 47.7082 39.2039
1 47.3214 49.0906 41.4021
1 44.5178 47.4714 43.3217
1 50.8887 45.4566 39.3056
1 49.7771 47.7184 39.247
1 49.7428 49.2075 41.3301
1 45.9403 46.9739 41.2161
1 35.614 49.7499 39.35
1 38.1946 49.7223 39.3085
1 40.8203 49.7655 39.2689
1 43.306 49.7719 39.3061
1 46.0237 49.8053 39.3037
1 48.3892 49.8763 39.1378
1 47.4854 34.4488 43.3074
1 49.9399 34.3887 43.5178
1 39.6704 38.6296 43.5812
1 42.2926 38.4893 43.527
1 43.4442 36.3572 43.4545
1 44.7757 38.5637 43.3824
1 46.0478 36.4541 43.3924
1 47.2817 38.6874 43.3556
1 48.3927 36.5673 43.4368
1 49.7614 38.7419 43.3766
1 37.1261 43.0859 43.4734
1 38.471 40.9598 43.4142
1 39.6506 43.1225 43.5304
1 41.0633 40.7451 43.392
1 42.2137 43.0279 43.3681
1 43.4533 40.907 43.4107
1 44.5579 43.1495 43.4258
1 45.9077 40.9154 43.3863
1 47.2131 43.0778 43.2806
1 48.3734 40.8705 43.3199
1 49.8126 43.1479 43.3995
1 34.5108 47.3018 43.4081
1 35.614 45.1466 43.2918
1 36.9402 47.4705 43.4955
1 38.2304 45.22 43.3458
1 39.4073 47.4382 43.483
1 40.6824 45.2416 43.4299
1 42.1275 47.5843 43.4424
1 43.3673 45.349 43.3448
1 45.9079 46.7567 45.3755
1 45.9581 45.3252 43.3094
1 47.1314 47.6506 43.3421
1 48.5138 45.3716 43.4197
1 49.5765 47.6411 43.4153
1 35.6526 49.6946 43.2959
1 38.4033 49.6675 43.5862
1 40.7952 49.6935 43.4972
1 43.3593 49.7327 43.4379
1 45.9379 49.8381 43.4377
1 48.4265 49.8293 43.4846
1 44.9056 35.9003 45.6291
1 47.2552 35.7131 45.5476
1 49.9042 35.7021 45.534
1 39.4998 40.09 45.4891
1 42.3918 40.1583 45.4915
1 40.8426 38.1522 45.4935
1 44.8053 40.2364 45.4149
1 43.4504 37.8228 45.4899
1 47.2885 40.2658 45.3901
1 46.0207 38.214 45.5649
1 49.8052 40.2076 45.5156
1 48.5191 37.9765 45.5657
1 36.8421 44.4122 45.4344
1 39.3413 44.462 45.5338
1 38.1159 42.2048 45.5576
1 41.9755 44.431 45.3673
1 40.8689 42.2218 45.5171
1 44.6327 44.6205 45.5334
1 43.4232 42.3891 45.4521
1 47.3218 44.6665 45.457
1 46.0371 42.5656 45.3524
1 49.7725 44.6483 45.467
1 48.4789 42.4114 45.555
1 34.4533 48.6443 45.4452
1 37.059 48.9904 45.434
1 35.6732 46.5113 45.5378
1 39.5732 48.8958 45.4625
1 38.3074 46.6492 45.4898
1 42.1308 48.9572 45.5967
1 40.7993 46.6938 45.5037
1 44.6316 48.9966 45.3642
1 43.3383 46.739 45.6303
1 48.4356 51.2539 45.5112
1 47.1334 49.0416 45.6184
1 49.678 49.0373 45.6016
1 48.5004 46.8368 45.4532
1 44.8435 35.7605 49.7536
1 47.1711 34.2472 47.7495
1 47.2159 35.612 49.7089
1 49.5639 34.3119 47.6912
1 49.8162 35.7083 49.8582
1 39.7394 38.7878 47.6133
1 39.4842 40.2078 49.6235
1 42.122 38.5265 47.563
1 42.0965 40.182 49.581
1 40.8709 38.1855 49.7174
1 43.4513 36.5033 47.5503
1 44.6676 38.8301 47.5822
1 44.683 40.1592 49.8681
1 43.3447 37.9864 49.7535
1 46.0328 36.613 47.6236
1 47.4489 38.7009 47.6414
1 47.257 40.1671 49.6919
1 46.0022 37.9577 49.8004
1 48.6379 36.435 47.6431
1 49.8534 38.656 47.7263
1 49.6706 40.2571 49.7925
1 48.5065 37.9153 49.8177
1 37.2272 43.2947 47.747
1 36.8748 44.4838 49.9594
1 38.384 40.9272 47.5593
1 39.6599 42.9926 47.5918
1 39.4558 44.4454 49.7496
1 38.2908 42.213 49.6624
1 41.0937 40.8982 47.515
1 42.2521 43.2068 47.605
1 41.979 44.6449 49.7168
1 40.8377 42.3115 49.6447
1 43.5378 41.0156 47.793
1 44.74 43.0384 47.6112
1 44.8073 44.5543 49.71
1 43.3995 42.432 49.6394
1 46.0305 40.921 47.5655
1 47.2704 43.0188 47.6217
1 47.2343 44.5486 49.8227
1 45.9249 42.3136 49.6605
1 48.585 40.9312 47.5204
1 49.7475 43.1206 47.5698
1 49.7962 44.4352 49.8515
1 48.4798 42.3217 49.7554
1 34.6367 47.4248 47.7923
1 34.7782 48.7765 49.72
1 36.1752 45.3316 47.6782
1 37.2728 47.6315 47.453
1 37.0435 48.9181 49.5997
1 35.5852 46.6092 49.7617
1 38.483 45.1423 47.5719
1 39.6693 47.4449 47.663
1 39.5545 49.0076 49.6908
1 38.0772 46.645 49.569
1 40.9501 45.2739 47.4934
1 42.2036 47.5299 47.5814
1 41.9541 48.9204 49.6026
1 40.7198 46.7098 49.6119
1 43.4556 45.3476 47.6276
1 44.5591 47.5155 47.6553
1 44.5419 49.1456 49.7463
1 43.1776 46.7417 49.7663
1 46.0415 45.3703 47.614
1 47.0939 47.5838 47.7198
1 47.1273 49.1567 49.7981
1 45.8707 46.9235 49.7014
1 48.46 45.4406 47.5446
1 49.6499 47.7428 47.5622
1 50.9194 49.9034 51.7709
1 48.3869 46.813 49.6981
1 35.6894 49.7606 47.4277
1 38.3122 49.7368 47.6195
1 40.7485 49.8099 47.6142
1 43.355 49.6909 47.6564
1 45.8388 49.8817 47.6173
1 49.7019 49.0883 49.5478
1 44.6117 35.7301 53.9856
1 48.4187 34.0145 51.4166
1 47.2716 35.7173 53.9904
1 51.0773 33.9555 51.2239
1 49.8614 35.8643 53.9251
1 39.7877 38.9173 51.8424
1 39.6375 40.202 53.9964
1 42.1468 38.6386 51.936
1 42.1828 40.2049 53.9296
1 40.8113 37.8715 53.7476
1 43.6134 36.4905 51.8396
1 44.7508 38.7247 52.004
1 43.3166 38.0187 54.0737
1 42.1753 35.9904 53.9024
1 45.9321 36.2862 51.8747
1 47.2408 38.5977 51.9281
1 47.1854 40.1196 54.0688
1 46.0329 37.8234 53.86
1 48.4267 36.2722 51.9168
1 49.8573 38.6979 51.8974
1 49.7591 40.1667 54.0366
1 48.6279 37.9708 53.9348
1 37.0184 42.9677 51.914
1 37.0477 44.5803 53.9135
1 38.5632 40.9966 51.9412
1 39.592 43.1426 51.8183
1 39.6398 44.5018 53.952
1 38.269 42.3898 54.0387
1 41.0063 40.9103 51.8428
1 42.1662 43.2938 51.8543
1 42.1394 44.6082 53.9871
1 40.7971 42.3666 53.9347
1 43.4119 40.9362 51.8468
1 44.7022 43.1095 51.8312
1 44.7502 44.5936 54.0087
1 43.4045 42.4223 53.8717
1 45.9287 40.9398 51.9829
1 47.189 43.1748 51.9245
1 46.1063 42.4368 53.8812
1 44.7104 40.1273 54.0146
1 48.4697 40.7793 51.8781
1 49.7841 43.0298 51.9517
1 49.8777 44.5797 53.9183
1 48.6484 42.5489 54.0243
1 34.6414 47.4569 51.8956
1 34.4807 48.706 53.8085
1 35.6913 45.1375 52.1575
1 37.0322 47.4923 51.8694
1 36.8658 48.9261 53.8321
1 35.7594 46.6676 54.0818
1 38.4029 45.384 51.8155
1 39.4823 47.6002 51.6939
1 39.512 48.9188 53.8793
1 38.3615 46.757 53.9911
1 40.8759 45.4602 51.7542
1 42.0115 47.6586 51.8114
1 42.136 48.9843 54.001
1 40.7187 46.8044 54.0323
1 43.3911 45.3494 51.7788
1 44.7802 47.5305 51.7847
1 44.6498 48.9706 53.8055
1 43.403 46.7871 53.9008
1 45.9123 45.4021 51.8574
1 47.3465 47.61 51.8207
1 47.0769 49.0241 53.8155
1 46.0159 46.8445 53.9472
1 48.5492 45.3898 51.8106
1 49.853 47.6569 51.7507
1 48.5095 46.9026 53.8817
1 47.2716 44.7092 53.9002
1 35.73 49.7878 51.7275
1 38.2932 49.7236 51.8243
1 40.779 49.8556 51.7525
1 43.3875 49.8996 51.7712
1 45.8345 49.8769 51.8644
1 48.3485 49.9896 51.7275
1 44.7175 35.9492 58.1928
1 48.667 33.6514 53.8636
1 47.2607 35.9898 58.0332
1 50.1214 34.435 55.9765
1 49.8958 35.8946 58.1909
1 39.9147 38.85 55.9653
1 39.5775 40.5003 58.4591
1 42.4155 38.7802 56.1772
1 42.1444 40.2721 58.1979
1 40.6666 37.9435 58.1035
1 41.0433 36.7746 55.9288
1 43.5049 36.389 56.0526
1 44.6526 40.2331 58.0295
1 43.3518 37.8946 58.2131
1 45.9978 36.5052 56.0967
1 47.2813 38.7218 55.9328
1 47.2928 40.3608 58.0401
1 46.019 38.076 58.189
1 48.5756 36.5977 55.9556
1 49.8629 38.8405 56.0811
1 49.8468 40.3199 58.1585
1 48.5533 38.1309 58.0156
1 36.8821 42.9964 56.1849
1 36.8924 44.5716 58.2523
1 38.6175 40.9559 56.2273
1 39.5315 43.1921 56.1631
1 39.5677 44.7123 58.1011
1 38.2147 42.5028 58.243
1 40.9563 41.0226 56.1765
1 42.1609 43.1761 56.0007
1 42.1478 44.6067 58.1042
1 40.9915 42.5886 58.2865
1 43.508 41.0604 55.9682
1 44.6402 43.1835 56.0358
1 44.6104 44.7166 58.0836
1 43.4723 42.4236 58.2001
1 44.8861 38.6235 56.0897
1 46.0145 40.9061 56.0057
1 47.2905 44.7015 58.1774
1 45.9337 42.5543 58.0399
1 48.5445 41.0242 55.9729
1 49.7476 43.2028 55.938
1 49.7391 44.7851 58.2844
1 48.4909 42.5154 58.0875
1 34.5927 47.6084 56.0084
1 34.2631 48.9967 58.2121
1 35.7911 45.2694 56.1044
1 37.0093 47.6258 55.8837
1 36.8449 48.9774 58.095
1 35.4027 46.6149 58.1933
1 38.2965 45.2359 55.9975
1 39.4444 47.4437 56.1049
1 39.3922 48.8823 58.1523
1 37.9544 46.6867 58.2066
1 40.8616 45.3658 56.0604
1 41.9858 47.6329 56.1161
1 41.9906 49.1589 58.1235
1 40.7804 46.8261 58.1955
1 43.3765 45.4115 55.9762
1 44.5543 47.785 56.0365
1 44.5038 49.0575 58.1512
1 43.285 47.0328 58.2318
1 45.8878 45.5325 55.9474
1 47.1044 47.6936 55.9413
1 47.1173 49.1553 58.0565
1 45.7061 46.9989 58.1936
1 47.1796 43.2758 56.0364
1 48.4856 45.4131 55.9315
1 49.6096 49.1191 57.9131
1 48.389 46.8966 58.0013
1 35.5017 49.7894 56.0731
1 38.2207 49.7979 55.9534
1 40.5896 49.9169 55.9283
1 43.2873 49.8131 55.9929
1 45.708 49.9619 56.0496
1 48.4 49.9013 55.9587
1 44.8405 35.7965 62.4802
1 47.9417 34.4409 60.0872
1 47.3623 35.8098 62.2115
1 50.2201 34.656 60.2598
1 49.8456 35.9521 62.2729
1 39.6757 38.8734 60.3403
1 39.7873 40.2818 62.3843
1 42.1872 38.6336 60.2079
1 42.1523 40.3151 62.351
1 40.7849 38.2 62.4484
1 43.6051 36.6909 60.3223
1 44.7785 38.8 60.2536
1 44.7216 40.4072 62.3055
1 43.3684 38.1733 62.434
1 46.0707 36.531 60.1631
1 47.3633 39.076 60.235
1 47.2109 40.3756 62.2896
1 45.782 38.0522 62.3661
1 48.7191 36.863 60.1322
1 49.8067 39.0213 60.2768
1 49.847 40.3105 62.223
1 48.4363 38.1873 62.3324
1 36.8476 43.0315 60.3616
1 37.0189 44.4629 62.4266
1 38.1814 40.8869 60.2276
1 39.4606 43.136 60.3098
1 39.3969 44.7772 62.3801
1 38.1784 42.3738 62.2262
1 40.8993 41.0351 60.2994
1 42.1225 43.3022 60.2454
1 42.0685 44.6568 62.467
1 40.7661 42.5343 62.3975
1 43.3898 40.7851 60.2961
1 44.5701 43.1907 60.2597
1 44.7345 44.7224 62.429
1 43.4012 42.5605 62.3485
1 45.9004 41.0482 60.0555
1 47.1583 43.2951 60.1848
1 47.3132 44.6902 62.3731
1 46.0717 42.5891 62.2077
1 48.4711 41.2024 60.2309
1 49.7948 43.3873 60.2244
1 49.9322 44.7761 62.288
1 48.6917 42.5731 62.3271
1 34.244 47.4824 60.3314
1 34.5033 48.8531 62.2464
1 35.538 45.2916 60.249
1 36.7279 47.4422 60.3411
1 36.9335 49.244 62.2746
1 35.6069 46.6624 62.3771
1 38.3034 45.3203 60.2853
1 39.3729 47.5867 60.224
1 39.6805 49.0792 62.3274
1 38.1935 47.009 62.3241
1 40.8664 45.4292 60.1616
1 42.0003 47.5965 60.2375
1 42.1691 49.0782 62.2746
1 40.8264 46.8686 62.3049
1 43.2636 45.4038 60.2176
1 44.5466 47.5622 60.2887
1 44.6682 49.186 62.2982
1 43.3672 46.9432 62.3544
1 45.8086 45.5309 60.3408
1 47.0541 47.7 60.2547
1 47.2002 49.1474 62.2666
1 45.9062 47.0657 62.3728
1 48.5554 45.5685 60.2742
1 49.7245 47.7177 60.2005
1 49.9098 49.1374 62.192
1 48.5284 47.1105 62.3036
1 35.7341 49.7244 60.2315
1 38.2278 49.7199 60.1563
1 40.8431 49.7573 60.2038
1 43.3774 49.8005 60.2201
1 45.8792 49.8758 60.0309
1 48.5974 49.8808 60.2419
1 44.69 36.1022 66.661
1 47.2722 34.6264 64.3064
1 47.249 35.9244 66.4491
1 49.4829 34.6391 64.2548
1 49.7624 35.8518 66.5398
1 39.515 38.857 64.4542
1 39.4588 40.3121 66.5898
1 42.1639 38.8142 64.5279
1 42.0006 40.3805 66.5988
1 40.7831 38.278 66.6279
1 43.6319 36.7384 64.5682
1 44.7904 38.8044 64.5181
1 44.6022 40.3094 66.4516
1 43.3334 38.1385 66.5865
1 46.1282 36.6781 64.4114
1 47.2503 38.9889 64.4485
1 47.1794 40.4758 66.4397
1 45.9342 38.1166 66.5585
1 48.662 36.8635 64.3228
1 49.8947 38.9136 64.5075
1 49.8359 40.4047 66.357
1 48.3658 38.0782 66.5232
1 36.8658 43.2457 64.5175
1 37.173 44.5623 66.5601
1 38.2587 41.0912 64.2358
1 39.395 43.3502 64.4198
1 39.5963 44.7227 66.541
1 38.2508 42.4036 66.5517
1 40.8108 41.0154 64.5382
1 41.9171 43.2434 64.5558
1 42.0534 44.842 66.512
1 40.6154 42.5714 66.6059
1 43.3397 40.9893 64.4717
1 44.5163 43.2603 64.541
1 44.4857 44.8797 66.5184
1 43.3886 42.5099 66.5292
1 45.8263 41.2406 64.2868
1 47.1013 43.3416 64.284
1 47.1909 44.7407 66.4102
1 45.9529 42.6209 66.5513
1 48.4843 41.0995 64.3762
1 49.87 43.2512 64.3278
1 49.7355 44.8136 66.432
1 48.4327 42.6476 66.4809
1 34.4047 47.5366 64.6145
1 34.7071 48.9424 66.423
1 35.7185 45.3435 64.4538
1 37.0187 47.7103 64.5094
1 37.0517 49.2165 66.7112
1 35.8278 46.7927 66.5787
1 38.1212 45.5294 64.3297
1 39.5558 47.6715 64.4278
1 39.5782 49.2818 66.4531
1 38.3178 47.0372 66.5612
1 40.7917 45.4553 64.477
1 42.1819 47.7841 64.3629
1 42.1143 49.274 66.3684
1 40.8709 47.024 66.5122
1 43.2852 45.5715 64.5519
1 44.6443 47.7354 64.4751
1 44.8176 49.3914 66.3986
1 43.4832 47.1959 66.5432
1 45.8467 45.6035 64.3999
1 47.2662 47.8287 64.3472
1 47.3442 49.2486 66.4101
1 46.0093 46.9468 66.4538
1 48.6096 45.4248 64.3032
1 49.823 47.8016 64.3109
1 49.735 49.1353 66.4819
1 48.4426 47.067 66.5228
1 35.5066 49.8929 64.3342
1 38.1093 49.853 64.4787
1 40.841 49.8789 64.3163
1 43.3471 49.9528 64.2819
1 45.8191 50.0271 64.2254
1 48.488 49.9906 64.4001
1 44.7144 35.8463 70.8983
1 47.5253 34.5857 68.621
1 47.4506 35.84 70.6848
1 50.0794 34.4255 68.5646
1 49.8229 35.7105 70.8087
1 39.6016 38.7631 68.6957
1 39.5413 40.2706 70.7189
1 42.1179 38.6575 68.7958
1 42.0858 40.2013 70.9052
1 40.7799 38.0933 70.9824
1 43.5872 36.7517 68.9092
1 44.7675 38.8849 68.6271
1 44.629 40.3224 70.8404
1 43.3414 37.914 70.9064
1 46.113 36.4796 68.6799
1 47.3484 38.7672 68.6559
1 47.209 40.2842 70.7272
1 46.0577 38.0293 70.7499
1 48.6748 36.6528 68.5473
1 49.7649 38.9616 68.4756
1 49.7209 40.3519 70.714
1 48.621 38.0789 70.7245
1 36.869 43.0612 68.626
1 37.1522 44.5964 70.5822
1 38.2932 41.0086 68.6184
1 39.5473 43.3376 68.6792
1 39.6782 44.7968 70.8662
1 38.2275 42.5565 70.8259
1 40.7462 41.0234 68.6817
1 42.2412 43.1658 68.4995
1 42.24 44.6937 70.7657
1 40.811 42.5293 70.7327
1 43.3415 40.9763 68.6272
1 44.5441 43.3351 68.6048
1 44.5675 44.6968 70.7707
1 43.3902 42.5164 70.6795
1 45.9787 41.0378 68.6456
1 47.117 43.2746 68.6054
1 47.2761 44.8651 70.6437
1 45.9154 42.5577 70.6955
1 48.4295 41.1031 68.5407
1 49.9179 43.4593 68.432
1 49.7428 44.802 70.7536
1 48.5513 42.7333 70.5241
1 34.4819 47.5743 68.84
1 34.6373 49.0664 71.0476
1 35.848 45.3633 68.568
1 36.9707 47.8206 68.6717
1 37.0977 49.352 70.7756
1 35.8153 46.7302 70.7654
1 38.3273 45.4824 68.5941
1 39.5414 47.7049 68.7464
1 39.7203 49.1569 70.751
1 38.3169 47.0059 70.774
1 40.8288 45.4281 68.6299
1 42.0652 47.674 68.5753
1 42.1637 49.2002 70.69
1 40.8716 47.0502 70.7403
1 43.3231 45.5463 68.7075
1 44.7391 47.8629 68.7424
1 44.6904 49.2847 70.669
1 43.3675 46.9739 70.7148
1 45.9327 45.5983 68.6647
1 47.2408 47.8062 68.6243
1 47.2193 49.3291 70.6874
1 45.945 46.9495 70.8607
1 48.5142 45.5321 68.507
1 49.7643 47.7983 68.5631
1 49.7046 49.0979 70.6627
1 48.4853 47.0956 70.6812
1 35.6601 49.8335 68.6988
1 38.3303 49.9896 68.5343
1 40.9413 50.0977 68.3428
1 43.4436 50.0277 68.5917
1 46.0756 50.0646 68.4727
1 48.5712 49.9718 68.562
1 45.0746 35.9216 75.1552
1 47.4332 34.5387 72.6751
1 47.5785 35.9552 74.7577
1 49.9219 34.5897 72.7279
1 49.9613 35.5228 74.9705
1 39.5194 38.9366 72.9509
1 39.597 40.1764 75.175
1 42.2869 38.7785 73.0993
1 42.1245 40.2441 75.0974
1 40.885 38.131 75.1829
1 43.6776 36.6267 73.2335
1 44.9312 38.828 72.9414
1 44.9209 40.2954 74.9415
1 43.5022 38.0559 75.1586
1 46.1226 36.451 72.7388
1 47.4003 38.8112 72.7529
1 47.2929 40.3366 74.8995
1 46.2157 38.125 74.9961
1 48.7935 36.6496 72.8798
1 49.8961 38.922 72.7375
1 49.8116 40.3949 74.8933
1 48.6712 38.1174 74.9013
1 37.2269 43.3621 72.8841
1 37.2885 44.7872 75.0439
1 38.5934 41.0922 72.9948
1 39.7489 43.3001 72.9875
1 39.802 44.9127 74.9441
1 38.3836 42.5519 75.0655
1 40.925 41.0574 72.8897