5538
Atoms. Timestep: 100000
1 46.804 40.8671 8.82862
1 47.4024 38.4488 9.02279
1 46.3144 37.1024 10.692
1 49.0395 37.2383 7.66761
1 48.5165 36.3278 9.93454
1 42.1744 39.9321 8.86155
1 40.2411 41.6521 9.03679
1 43.0437 39.6771 11.1248
1 42.725 42.3214 9.17121
1 44.4291 40.5854 8.10293
1 45.2261 42.8865 8.75037
1 41.7697 41.0495 12.5484
1 46.0106 39.9535 11.8908
1 47.3936 42.9339 10.0609
1 45.1728 39.1505 9.87432
1 48.0307 39.9636 10.6712
1 47.1017 40.611 13.9225
1 44.3946 37.8682 12.0913
1 45.5762 35.8029 12.6771
1 49.7123 36.9458 13.525
1 47.5764 38.131 12.3967
1 47.9792 35.7718 12.2371
1 39.5478 46.2238 9.87
1 36.5442 44.4817 9.8186
1 38.1258 42.864 8.81596
1 39.6224 41.9504 11.5489
1 40.3452 44.7503 12.3196
1 38.8202 44.0046 10.7645
1 40.6526 39.9761 10.7129
1 41.6939 43.0667 11.334
1 41.8941 45.7685 10.3705
1 40.7423 43.963 9.40438
1 44.5074 41.5849 10.6897
1 47.0294 43.943 14.2122
1 43.8189 44.0208 10.399
1 43.7579 42.5513 12.6609
1 45.2948 42.2421 14.4696
1 47.8202 44.4687 11.913
1 46.1397 44.9865 9.90709
1 46.3559 42.3623 12.2386
1 49.1444 39.9559 12.9013
1 50.1521 44.0962 11.6394
1 48.3173 46.1893 9.83704
1 48.7714 42.1277 11.8369
1 37.911 48.117 10.2809
1 38.8942 50.2925 9.99447
1 39.0617 44.7496 7.8392
1 35.9366 46.7611 10.6363
1 34.978 46.1254 12.8093
1 37.4869 46.3346 8.72023
1 37.1662 45.3444 12.0573
1 40.4406 48.5508 10.3968
1 38.797 49.4934 12.322
1 39.0557 47.0624 12.106
1 41.1664 45.7702 14.2532
1 43.0467 48.831 11.5409
1 42.3471 52.6466 11.8858
1 41.4495 47.2097 12.2631
1 42.9293 45.2061 12.3883
1 44.4379 48.1284 8.0421
1 44.6658 49.6395 9.88999
1 42.4379 47.8957 9.30236
1 44.1357 46.3697 9.80562
1 45.4349 44.5197 12.1815
1 46.1261 49.1616 11.743
1 46.2985 47.6394 9.7232
1 49.3747 44.7279 14.0393
1 49.4722 46.4138 11.9353
1 49.5764 49.2892 14.1184
1 46.859 46.7113 11.8921
1 36.3634 48.7449 11.946
1 35.8699 50.3291 13.6912
1 41.184 50.4418 11.9171
1 43.8823 51.9543 10.0663
1 44.4908 47.0491 11.9807
1 48.4604 48.5107 12.2089
1 41.5823 35.02 18.1261
1 46.8249 32.7237 17.4448
1 44.8682 34.3072 17.4213
1 49.1624 33.408 16.8773
1 49.2139 35.3123 15.4463
1 40.2175 37.0593 17.3772
1 39.6731 39.3836 16.8737
1 41.5105 37.3001 15.4496
1 40.2696 39.2817 14.614
1 42.3627 36.0837 20.3011
1 43.2146 35.9211 16.3701
1 42.4464 38.6355 13.5193
1 44.1936 40.2096 13.4673
1 43.5098 36.4741 13.9322
1 43.3529 33.956 19.3143
1 45.9493 37.3379 16.4642
1 45.8259 38.4155 14.0644
1 45.2973 35.3061 15.1892
1 47.1927 35.1136 16.7569
1 48.5478 37.202 16.7148
1 48.5048 38.6135 14.6864
1 47.2698 36.4808 14.4687
1 35.2316 43.623 16.2976
1 38.3151 43.434 13.2391
1 37.3158 39.1929 17.2671
1 38.2913 42.7428 15.7804
1 38.7925 45.5903 14.1213
1 36.2969 41.3093 16.4945
1 38.1665 40.3507 15.2005
1 40.843 42.5131 16.0649
1 41.7878 43.324 13.992
1 39.8256 41.6235 14.0409
1 42.1741 39.3361 16.7886
1 43.3532 42.7402 16.1126
1 44.0478 44.4479 14.4127
1 42.2084 40.8605 14.9069
1 43.9341 38.1638 15.6078
1 47.1895 41.9765 16.0743
1 45.5718 43.9632 16.2917
1 44.4023 40.4809 15.9087
1 46.6465 39.6312 15.9596
1 48.6483 43.864 16.2217
1 51.676 44.437 13.4704
1 49.0181 42.1863 14.1936
1 34.1713 45.3691 15.0287
1 33.5608 47.6995 15.9301
1 35.9627 44.1229 13.8649
1 35.8132 46.8882 15.9093
1 35.6766 49.3284 16.0213
1 34.7853 48.2539 13.8946
1 37.2735 44.8961 15.7975
1 38.2294 47.1743 15.9585
1 37.7823 49.3478 14.5295
1 36.9702 47.2642 13.6755
1 39.7533 44.6897 16.1442
1 40.752 47.0054 16.326
1 42.0952 49.0608 13.8974
1 39.966 47.9822 14.1701
1 42.2311 44.8194 16.1926
1 42.7861 48.219 16.1702
1 44.5824 48.9403 13.7091
1 43.2975 46.9075 14.1583
1 44.3241 46.196 16.1983
1 46.0426 47.8147 15.523
1 47.059 49.3527 13.998
1 45.8025 46.0783 14.013
1 47.1445 45.7883 16.132
1 49.593 46.352 16.0784
1 48.2447 48.5194 16.1821
1 48.2293 46.9921 14.1563
1 33.5242 49.8698 16.9728
1 37.5328 50.8735 16.3654
1 39.471 49.2727 16.2525
1 41.6365 50.3316 16.1818
1 44.727 49.5276 16.1837
1 46.9498 50.6414 16.2039
1 44.796 35.5539 20.4488
1 45.8936 33.5863 19.5519
1 47.2676 35.0956 20.9849
1 48.2679 34.2042 19.0029
1 49.7917 34.9748 20.7945
1 38.6881 38.1859 19.1547
1 39.392 40.4134 20.2322
1 40.9767 38.9096 19.082
1 42.0223 40.5424 20.3531
1 40.4218 37.3801 20.8193
1 42.4945 37.3088 18.1267
1 44.4952 38.8361 17.9952
1 44.5912 40.3744 20.2053
1 43.1602 38.3922 20.2339
1 44.8089 36.45 18.2805
1 46.9424 38.7818 18.174
1 47.0537 40.2208 20.2242
1 45.6741 37.9574 20.2316
1 47.2592 36.4305 18.9066
1 49.5339 38.9898 18.2322
1 49.4842 40.3199 20.3629
1 48.3293 38.1036 20.3872
1 36.9938 43.32 18.0442
1 36.7163 44.6556 20.1624
1 38.4184 41.1563 18.0833
1 39.4373 43.36 18.1193
1 39.2181 44.7575 20.2113
1 37.9577 42.4906 20.1435
1 40.8508 41.1375 18.023
1 41.9794 43.3372 18.2144
1 41.7871 44.7533 20.4016
1 40.6651 42.5971 20.262
1 43.3275 41.0722 18.2408
1 44.4721 43.2831 18.3207
1 44.4939 44.7885 20.324
1 43.1732 42.5902 20.3675
1 45.7659 41.0362 18.005
1 47.06 43.2969 18.1754
1 46.9996 44.8478 20.2424
1 45.8712 42.5406 20.2766
1 48.2013 41.1748 18.293
1 49.5935 43.3014 18.3358
1 49.5868 44.8631 20.3243
1 48.3267 42.6251 20.3836
1 34.376 47.8308 18.2029
1 34.4457 49.1221 20.3833
1 35.7011 45.6091 18.0771
1 36.8159 47.9188 17.8897
1 36.8328 49.1087 20.3067
1 35.4621 46.8473 20.2373
1 38.1273 45.6015 18.0232
1 39.3323 47.7087 18.2526
1 39.3814 49.0546 20.4233
1 37.838 46.9184 20.1232
1 40.6947 45.5249 18.226
1 41.9309 47.7311 18.3917
1 41.9074 49.2329 20.4041
1 40.5489 46.8912 20.4246
1 43.245 45.5246 18.3834
1 44.4424 47.8086 18.1515
1 44.4914 49.1175 20.3819
1 43.1416 46.9506 20.3863
1 45.7373 45.5109 18.2202
1 46.8748 47.6575 18.0315
1 46.974 49.2859 20.3214
1 45.7056 47.0426 20.2689
1 48.3011 45.5078 18.2012
1 49.5378 47.832 18.1297
1 49.5212 49.2421 20.2572
1 48.1817 47.0093 20.1882
1 35.5387 49.9937 18.3411
1 38.14 49.9068 18.3974
1 40.6592 49.908 18.4283
1 43.1315 49.9113 18.2415
1 45.6747 49.9663 18.234
1 48.1884 49.9504 18.2602
1 44.597 36.0706 24.4776
1 48.5305 34.3315 22.998
1 47.1481 35.7093 24.4933
1 51.0659 34.2295 22.9381
1 49.7993 35.8398 24.5393
1 39.4483 39.0707 22.2971
1 39.2848 40.3891 24.4632
1 41.9514 38.743 22.2824
1 41.9515 40.3506 24.4741
1 40.631 38.3088 24.3911
1 43.4687 36.7909 22.3156
1 44.6039 38.8611 22.3906
1 44.437 40.2535 24.5676
1 43.2461 38.1559 24.4785
1 46.0345 36.748 22.4369
1 47.1474 38.8968 22.3798
1 46.9772 40.3411 24.5426
1 45.82 38.1585 24.5355
1 48.4643 36.6112 22.3538
1 49.5949 38.8872 22.4274
1 49.5593 40.2573 24.5415
1 48.3811 37.992 24.5032
1 37.1808 43.4822 22.35
1 36.6349 44.6584 24.4655
1 38.3933 41.3757 22.3284
1 39.6513 43.4344 22.3796
1 39.2006 44.7039 24.4835
1 37.9691 42.5042 24.4803
1 40.8007 41.0852 22.3723
1 42.071 43.2652 22.462
1 41.8746 44.6144 24.5143
1 40.5567 42.4534 24.4738
1 43.3546 41.0462 22.4439
1 44.5392 43.3038 22.3629
1 44.4225 44.6752 24.453
1 43.1608 42.4575 24.5652
1 45.8269 41.0691 22.4199
1 47.0287 43.3045 22.4322
1 46.9554 44.7995 24.5209
1 45.7481 42.5304 24.5155
1 48.3104 41.1004 22.4469
1 49.57 43.3716 22.4504
1 49.4994 44.7915 24.5171
1 48.3276 42.5244 24.4694
1 34.6367 47.7524 22.3874
1 34.5305 49.1486 24.5061
1 35.8049 45.5548 22.3289
1 37.0055 47.841 22.4041
1 36.8491 49.1033 24.5366
1 35.3634 46.8911 24.4835
1 38.318 45.7152 22.3178
1 39.4758 47.8203 22.569
1 39.3151 49.1322 24.543
1 37.9749 46.8589 24.5649
1 40.7687 45.576 22.4704
1 41.9731 47.72 22.4697
1 41.8061 49.1631 24.4978
1 40.5043 46.881 24.5349
1 43.1757 45.4897 22.421
1 44.4601 47.7558 22.439
1 44.3916 49.2317 24.5483
1 43.0246 46.932 24.5068
1 45.721 45.5354 22.419
1 46.9805 47.7725 22.3789
1 46.9669 49.1479 24.5109
1 45.6638 46.9605 24.5846
1 48.2705 45.5943 22.4132
1 49.5402 47.7125 22.3487
1 49.5236 49.1984 24.4944
1 48.2383 46.9857 24.5428
1 35.5647 50.0511 22.3905
1 38.1553 49.991 22.4549
1 40.7037 49.954 22.4424
1 43.2444 49.8601 22.5615
1 45.7322 49.9001 22.4839
1 48.3033 50.0262 22.458
1 44.7447 36.1098 28.5528
1 47.3572 34.5578 26.6722
1 47.2412 35.8894 28.7278
1 49.7379 34.4471 26.5165
1 49.7454 35.8436 28.7003
1 39.4858 39.0634 26.6185
1 39.1986 40.2479 28.7029
1 41.8698 38.7271 26.5563
1 41.9564 40.3431 28.7105
1 40.7307 38.2195 28.7224
1 43.444 36.7536 26.5507
1 44.5857 38.9054 26.6849
1 44.5741 40.3614 28.7781
1 43.277 38.1108 28.7348
1 45.9653 36.6823 26.5642
1 47.1189 38.8693 26.5407
1 47.1187 40.3931 28.7692
1 45.9248 38.1974 28.701
1 48.4888 36.7305 26.6748
1 49.6267 38.9505 26.6858
1 49.6087 40.4073 28.7066
1 48.3522 38.1818 28.7418
1 37.1505 43.5038 26.6068
1 36.6989 44.7156 28.7172
1 38.2035 41.2143 26.5911
1 39.5171 43.2992 26.6019
1 39.281 44.5949 28.7176
1 37.976 42.4913 28.7012
1 40.7196 41.0883 26.6483
1 41.9636 43.3425 26.5979
1 41.8397 44.6332 28.74
1 40.4765 42.4041 28.6838
1 43.2232 40.9474 26.6695
1 44.4408 43.2654 26.5263
1 44.4387 44.718 28.6928
1 43.0806 42.4769 28.7062
1 45.8034 41.1497 26.6421
1 47.0364 43.2714 26.5208
1 47.0061 44.7565 28.6506
1 45.7392 42.5664 28.7134
1 48.3379 41.053 26.5595
1 49.5695 43.3035 26.5884
1 49.5638 44.8246 28.6754
1 48.3644 42.5818 28.6834
1 34.2651 47.8181 26.6288
1 34.4468 49.1512 28.7463
1 35.7404 45.602 26.5939
1 36.838 47.7614 26.6544
1 36.7821 49.1112 28.7099
1 35.3367 46.8864 28.68
1 38.2536 45.5188 26.7168
1 39.3225 47.7443 26.7055
1 39.3321 49.1466 28.6951
1 37.9098 46.8906 28.8032
1 40.6888 45.4915 26.6317
1 41.8599 47.697 26.6266
1 41.8688 49.1424 28.6656
1 40.4336 46.8539 28.7567
1 43.1563 45.5123 26.6052
1 44.3896 47.6377 26.6625
1 44.4573 49.1503 28.6285
1 43.0094 46.9476 28.6702
1 45.7106 45.4685 26.5643
1 46.9801 47.6355 26.5921
1 47.0592 49.2227 28.6229
1 45.6577 46.9773 28.7358
1 48.2529 45.5002 26.7043
1 49.5222 47.7161 26.6145
1 49.5847 49.2226 28.6266
1 48.2414 47.0417 28.7292
1 35.5474 50.0422 26.6187
1 38.0991 49.9505 26.6234
1 40.5654 49.9552 26.6257
1 43.1161 49.7977 26.6035
1 45.6967 49.8692 26.5981
1 48.293 49.9086 26.5955
1 47.157 34.351 30.7391
1 49.5512 34.5159 30.7026
1 39.5802 38.8057 30.7664
1 42.0248 38.6042 30.7822
1 43.6408 36.5711 30.8667
1 44.6074 38.8093 30.9104
1 46.0969 36.6076 30.9049
1 47.1327 38.8914 30.8221
1 48.5818 36.6776 30.9053
1 49.6694 38.9416 30.7798
1 37.0536 43.3698 30.7732
1 38.3449 41.1342 30.7947
1 39.5442 43.2731 30.8251
1 40.7506 40.94 30.7932
1 41.8983 43.1067 30.8167
1 43.303 40.9783 30.8227
1 44.5099 43.2134 30.7921
1 45.8489 41.1134 30.7852
1 47.0561 43.2973 30.7795
1 48.3895 41.1025 30.7997
1 49.5962 43.2847 30.7552
1 34.3989 47.7109 30.8544
1 35.7535 45.5783 30.8245
1 36.8135 47.6953 30.7959
1 38.1847 45.4917 30.8479
1 39.3546 47.7833 30.7949
1 40.6766 45.4401 30.8469
1 41.8753 47.6326 30.8351
1 43.1104 45.3802 30.8074
1 44.4106 47.6404 30.7695
1 45.7255 45.4757 30.8196
1 46.9936 47.7532 30.7951
1 48.2866 45.5985 30.7148
1 49.5668 47.7218 30.7467
1 35.5106 50.0331 30.8312
1 38.0676 49.9138 30.7962
1 40.5659 49.8532 30.8596
1 43.1865 49.793 30.7455
1 45.7321 49.9278 30.8067
1 48.3008 49.895 30.7764
1 44.8274 35.9872 32.9808
1 47.2649 35.6888 32.9289
1 49.8486 35.793 33.0064
1 39.2716 40.1778 32.9482
1 41.9342 40.2542 32.9324
1 40.7603 38.1657 32.943
1 44.5135 40.3117 32.9013
1 43.3284 37.9083 32.9356
1 47.0694 40.3979 32.8622
1 45.8814 38.2033 32.9832
1 49.5957 40.307 32.8192
1 48.3294 38.0478 32.9492
1 36.5614 44.6007 32.9144
1 39.1897 44.6322 32.9518
1 37.9629 42.4226 32.9066
1 41.7654 44.6139 32.9065
1 40.5364 42.3635 32.9829
1 44.4357 44.6761 32.8593
1 43.111 42.515 32.9165
1 47.0469 44.7289 32.9112
1 45.7929 42.487 32.867
1 49.5623 44.792 32.7873
1 48.3435 42.6065 32.8902
1 34.4 49.15 32.9033
1 36.7564 49.0847 32.8392
1 35.36 46.9211 32.9275
1 39.2619 49.071 32.9468
1 37.9304 46.7918 32.9224
1 41.8624 49.0405 32.9033
1 40.4349 46.8666 32.8469
1 44.482 49.0499 32.8962
1 43.08 46.8305 32.897
1 47.0779 49.1479 32.8556
1 45.6868 46.8648 32.8322
1 49.5917 49.2206 32.9157
1 48.2531 46.9562 32.9089
1 44.8989 35.9498 37.119
1 47.2992 34.4421 35.0366
1 47.3643 35.725 37.148
1 49.6614 34.4653 35.0451
1 49.9595 35.7612 37.1018
1 39.6899 38.9328 35.0525
1 39.4093 40.2745 37.1409
1 42.1567 38.6477 35.0017
1 42.1049 40.3049 37.1513
1 40.8435 38.2417 37.1423
1 43.7421 36.5764 35.0738
1 44.6748 38.8232 35.0855
1 44.5891 40.2026 37.1679
1 43.3167 37.9126 37.1312
1 46.182 36.5944 34.9513
1 47.1875 38.929 35.0002
1 47.1515 40.3306 37.0904
1 46.0239 38.0689 37.099
1 48.6749 36.7372 34.9928
1 49.7632 38.9281 35.0078
1 49.7211 40.2941 37.0759
1 48.4192 38.0034 37.0651
1 37.1108 43.4095 35.0283
1 36.7932 44.6788 37.1675
1 38.429 41.2471 35.0615
1 39.6329 43.3519 35.0541
1 39.3058 44.6356 37.0924
1 38.0179 42.4354 37.1477
1 40.8832 41.015 35.0317
1 42.0704 43.2241 35.0286
1 41.8119 44.6386 37.11
1 40.5699 42.4026 37.1095
1 43.3336 40.9817 35.0246
1 44.5523 43.1866 34.9903
1 44.4109 44.7012 37.0831
1 43.288 42.4582 37.1334
1 45.857 41.058 34.9782
1 47.1237 43.3335 34.9676
1 46.9579 44.6885 37.1595
1 45.8483 42.4194 37.0325
1 48.479 41.0863 34.9243
1 49.6396 43.3267 34.9479
1 49.5014 44.7962 37.1151
1 48.3705 42.5618 37.0645
1 34.3758 47.8118 35.0055
1 34.3448 49.1438 37.149
1 35.7367 45.551 35.0386
1 36.8249 47.7691 35.0224
1 36.8785 49.1623 37.2144
1 35.3822 46.8631 37.1697
1 38.1909 45.5495 34.9949
1 39.3352 47.6345 35.0299
1 39.3644 49.0939 37.1607
1 37.9504 46.9448 37.129
1 40.6785 45.5048 34.9966
1 41.9001 47.5752 35.0092
1 41.8982 49.1094 37.1045
1 40.63 46.846 37.0733
1 43.1612 45.3962 35.0027
1 44.3862 47.6602 34.9979
1 44.497 49.0896 37.0721
1 43.2147 46.9073 37.0573
1 45.7556 45.4426 35.0264
1 46.9967 47.6839 34.9596
1 47.0554 49.158 37.1723
1 45.7326 46.9024 37.0546
1 48.3384 45.49 35.0216
1 49.5614 47.7257 35.0055
1 49.5364 49.1183 37.1594
1 48.2523 46.8969 37.0769
1 35.499 50.0131 34.9967
1 38.0195 49.9136 35.0382
1 40.5977 49.8582 34.9415
1 43.126 49.7831 34.97
1 45.7601 49.8588 34.9815
1 48.2815 49.8767 34.9868
1 44.8417 35.9409 41.3254
1 47.8142 34.527 39.1518
1 47.445 35.7741 41.3559
1 50.2315 34.5346 39.1719
1 49.8317 35.6945 41.2683
1 39.7557 38.9181 39.264
1 39.338 40.2304 41.2435
1 42.1726 38.6698 39.2082
1 41.9554 40.2757 41.297
1 40.7782 38.2345 41.3341
1 43.6876 36.5694 39.1888
1 44.6965 38.7683 39.2741
1 44.5954 40.2838 41.3476
1 43.2868 37.9954 41.3981
1 46.168 36.4997 39.2163
1 47.3008 38.8514 39.1643
1 47.1465 40.3146 41.2795
1 45.9911 38.0929 41.2226
1 48.6669 36.7053 39.2226
1 49.8202 38.8868 39.2292
1 49.6129 40.3466 41.243
1 48.472 37.9745 41.2263
1 37.1112 43.3571 39.1899
1 36.8593 44.6062 41.3158
1 38.5161 41.1659 39.1784
1 39.604 43.2981 39.2453
1 39.3364 44.5914 41.3572
1 38.0591 42.4452 41.2948
1 40.942 41.0586 39.2162
1 42.03 43.2254 39.2461
1 41.9187 44.6323 41.307
1 40.6338 42.3683 41.3349
1 43.3949 40.9851 39.2174
1 44.5797 43.2372 39.1439
1 44.471 44.6549 41.3461
1 43.2051 42.4073 41.277
1 45.9523 41.0527 39.2092
1 47.183 43.2756 39.1921
1 47.1512 44.8414 41.2965
1 45.8844 42.5911 41.3119
1 48.4492 41.0065 39.168
1 49.5785 43.3411 39.1977
1 49.6262 44.7767 41.3184
1 48.4081 42.5197 41.3296
1 34.423 47.894 39.2007
1 34.5178 49.1368 41.325
1 35.6219 45.5852 39.2016
1 36.9272 47.6487 39.2484
1 36.9457 49.043 41.3482
1 35.3815 46.8317 41.2834
1 38.31 45.4714 39.2508
1 39.4985 47.6847 39.2112
1 39.3819 49.0775 41.309
1 38.0133 46.7784 41.2768
1 40.7329 45.5176 39.2345
1 41.9068 47.6714 39.1687
1 41.9469 49.0893 41.3173
1 40.5765 46.8343 41.3402
1 43.29 45.4605 39.1122
1 44.4833 47.6306 39.1815
1 44.4407 49.0579 41.3159
1 43.1325 46.8602 41.2608
1 45.8984 45.4073 39.2152
1 47.0223 47.638 39.1347
1 47.1022 49.0403 41.2506
1 44.4416 47.4901 43.3518
1 50.8056 45.4687 39.1201
1 49.4465 47.562 39.1164
1 49.5646 49.0593 41.2613
1 45.7703 46.897 41.2792
1 35.5925 50.0068 39.1943
1 38.1353 49.8791 39.2634
1 40.6977 49.9345 39.2131
1 43.2619 49.8823 39.2083
1 45.7596 49.8551 39.173
1 48.3559 49.8172 39.2333
1 47.8376 34.462 43.4045
1 50.198 34.464 43.2756
1 39.645 38.7949 43.4139
1 42.1173 38.6546 43.42
1 43.5878 36.541 43.5066
1 44.7381 38.6964 43.3429
1 46.1271 36.4899 43.3984
1 47.2605 38.7226 43.3228
1 48.7424 36.6815 43.4004
1 49.8108 38.9364 43.3584
1 37.1371 43.373 43.4242
1 38.348 41.1149 43.3912
1 39.597 43.3055 43.4005
1 40.9344 40.9593 43.371
1 42.107 43.1628 43.4314
1 43.4018 40.8599 43.3459
1 44.624 43.1453 43.3453
1 45.9202 40.9618 43.4426
1 47.1636 43.1105 43.4743
1 48.4432 40.9954 43.3858
1 49.666 43.2163 43.3667
1 34.4716 47.848 43.4068
1 35.753 45.5028 43.3758
1 36.912 47.7351 43.3592
1 38.2939 45.569 43.4463
1 39.4232 47.716 43.3991
1 40.7067 45.3983 43.4823
1 41.8966 47.5359 43.4356
1 43.1973 45.369 43.3661
1 45.8074 46.7668 45.5416
1 45.7886 45.4038 43.4014
1 47.1056 47.5483 43.2951
1 48.3755 45.4192 43.3592
1 49.6402 47.6353 43.3731
1 35.6138 50.0796 43.3905
1 38.1369 49.9224 43.4589
1 40.6731 49.8989 43.4416
1 43.2353 49.7505 43.4214
1 45.851 49.79 43.3954
1 48.3163 49.8301 43.3149
1 44.8249 36.0303 45.4541
1 47.375 35.7202 45.5025
1 49.8378 35.7239 45.5064
1 39.3639 40.2169 45.5228
1 42.0182 40.2319 45.5641
1 40.7929 38.0705 45.5959
1 44.5694 40.089 45.3843
1 43.2951 37.9476 45.4967
1 47.1971 40.3027 45.5353
1 45.9621 38.1093 45.4597
1 49.7454 40.2333 45.4746
1 48.428 38.0319 45.5762
1 36.7288 44.5775 45.4831
1 39.3237 44.6626 45.5045
1 38.0857 42.3765 45.4608
1 41.886 44.5469 45.5121
1 40.7116 42.3428 45.4571
1 44.4518 44.5948 45.4522
1 43.3569 42.3668 45.4835
1 47.1148 44.5927 45.4694
1 45.7894 42.3547 45.5222
1 49.6639 44.7584 45.3864
1 48.3909 42.4097 45.5306
1 34.5588 49.0621 45.6227
1 36.8649 48.9894 45.4732
1 35.5461 46.7936 45.5666
1 39.3183 49.1128 45.5399
1 38.0897 46.7823 45.4927
1 41.8348 48.9876 45.5093
1 40.6128 46.7954 45.5775
1 44.5028 48.9333 45.5298
1 43.2701 46.6859 45.507
1 48.3444 51.3103 45.4588
1 47.0799 49.0198 45.4246
1 49.637 49.1112 45.2673
1 48.328 46.87 45.4271
1 44.8281 35.8412 49.7237
1 47.7261 34.5073 47.5532
1 47.4254 35.646 49.7253
1 50.2106 34.4296 47.6091
1 49.9275 35.6555 49.5788
1 39.6753 38.8237 47.5787
1 39.4565 40.1273 49.7596
1 42.1285 38.6144 47.6455
1 42.0846 40.1485 49.642
1 40.8652 38.0992 49.69
1 43.6403 36.4492 47.5632
1 44.6643 38.6011 47.5364
1 44.6122 40.1204 49.645
1 43.4147 37.8218 49.7214
1 46.1603 36.4576 47.6131
1 47.1386 38.7254 47.6282
1 47.249 40.1936 49.707
1 45.9408 38.0673 49.7179
1 48.7378 36.6633 47.5893
1 49.8822 38.8294 47.6111
1 49.8128 40.2791 49.6824
1 48.5834 37.9978 49.6718
1 37.2935 43.3783 47.5703
1 36.8464 44.5267 49.7594
1 38.5105 41.1283 47.6599
1 39.6563 43.2797 47.588
1 39.3452 44.4917 49.7064
1 38.0932 42.3011 49.6722
1 40.8892 40.9802 47.6072
1 42.1209 43.1087 47.6103
1 41.8892 44.5393 49.7051
1 40.6747 42.2801 49.7404
1 43.3872 40.7719 47.6182
1 44.5828 43.0768 47.6266
1 44.5178 44.5316 49.6648
1 43.2528 42.3701 49.7412
1 45.8776 40.961 47.6306
1 47.1336 43.1684 47.5101
1 47.0442 44.6077 49.6441
1 45.7845 42.3252 49.7017
1 48.4342 40.9402 47.637
1 49.6677 43.1723 47.6144
1 49.6083 44.6609 49.6304
1 48.3976 42.4257 49.7641
1 34.5931 47.7436 47.6666
1 34.4321 49.0209 49.7452
1 35.9563 45.5492 47.6874
1 37.0658 47.6889 47.6477
1 36.8501 48.9502 49.7111
1 35.5435 46.7135 49.7447
1 38.3893 45.4768 47.599
1 39.4446 47.6878 47.6439
1 39.3125 49.0157 49.7027
1 38.0481 46.7392 49.7386
1 40.8281 45.4123 47.6167
1 41.9971 47.5814 47.6208
1 41.9161 49.0838 49.6611
1 40.5912 46.814 49.6651
1 43.2869 45.3794 47.6483
1 44.4808 47.6651 47.6183
1 44.4975 49.1072 49.7232
1 43.2064 46.7606 49.7583
1 45.7782 45.2746 47.4831
1 47.1067 47.6263 47.5637
1 47.1114 49.1062 49.7337
1 45.8539 46.8896 49.6227
1 48.3644 45.3473 47.5475
1 49.6068 47.6496 47.4912
1 50.8487 49.8946 51.7132
1 48.4054 46.8546 49.5912
1 35.7174 49.9699 47.6533
1 38.086 49.9552 47.5918
1 40.6321 49.8294 47.6456
1 43.1863 49.7364 47.6026
1 45.7523 49.7603 47.5385
1 49.6438 49.0836 49.5942
1 44.7798 36.0349 53.9053
1 48.8918 34.0913 51.3372
1 47.2958 35.9768 53.8961
1 51.3097 34.1355 50.9803
1 49.9047 35.9795 53.8931
1 39.7505 38.8465 51.7678
1 39.4947 40.1445 53.9655
1 42.1976 38.5893 51.9026
1 42.0461 40.1609 53.9708
1 40.8408 38.0512 53.891
1 43.5786 36.4037 51.8098
1 44.7272 38.6437 51.7992
1 43.3928 38.0866 53.9068
1 42.225 36.1428 53.894
1 46.1407 36.4732 51.7787
1 47.3618 38.6078 51.7971
1 47.2068 40.3329 53.8891
1 45.9587 38.1838 53.9477
1 48.6055 36.4905 51.8293
1 49.8978 38.7151 51.7905
1 49.6989 40.3328 53.9267
1 48.4769 38.1439 53.8986
1 37.2217 43.3673 51.8312
1 36.9034 44.5888 53.9313
1 38.5109 41.1075 51.8697
1 39.6661 43.2556 51.7504
1 39.3901 44.5472 53.9074
1 38.0206 42.2837 53.9661
1 40.9803 40.9629 51.7834
1 42.1224 43.1271 51.827
1 41.9381 44.5243 53.9167
1 40.6541 42.3682 53.9642
1 43.4605 40.8662 51.868
1 44.6216 43.1175 51.8531
1 44.5691 44.5389 53.9292
1 43.2446 42.3714 53.9355
1 45.9387 40.8529 51.719
1 47.1889 43.1259 51.8442
1 45.8977 42.4564 53.9098
1 44.6223 40.2636 53.9529
1 48.4995 40.9532 51.8512
1 49.7482 43.2482 51.8185
1 49.6599 44.7579 53.8681
1 48.4289 42.5406 53.8308
1 34.5434 47.6382 51.7951
1 34.521 49.1399 54.0264
1 35.9115 45.4453 51.8836
1 36.9866 47.7111 51.8542
1 36.9069 49.1156 53.9798
1 35.5656 46.7998 54.0233
1 38.3601 45.4912 51.8161
1 39.5286 47.5735 51.7912
1 39.4767 49.0471 53.9001
1 38.0459 46.8482 53.935
1 40.8749 45.5213 51.7358
1 41.9984 47.6219 51.7624
1 41.9652 48.9838 53.8701
1 40.5857 46.8414 53.9091
1 43.355 45.3298 51.8647
1 44.5454 47.5452 51.702
1 44.5445 48.964 53.8799
1 43.1819 46.713 53.9186
1 45.9045 45.3196 51.8636
1 47.1508 47.6438 51.7371
1 47.0455 49.0931 53.8366
1 45.8333 46.8224 53.8907
1 48.3711 45.4464 51.8293
1 49.6915 47.6876 51.771
1 48.3444 46.9006 53.8345
1 47.0884 44.6301 53.9758
1 35.6292 49.8575 51.8702
1 38.2004 49.8224 51.8732
1 40.6818 49.8258 51.808
1 43.2478 49.8764 51.8092
1 45.8337 49.8334 51.7682
1 48.3333 49.9296 51.7753
1 44.892 35.9824 58.2387
1 48.6897 34.015 53.7625
1 47.3216 35.8993 58.1761
1 49.9364 34.4644 56.0369
1 49.9067 35.8824 58.1329
1 39.7742 38.9319 56.097
1 39.372 40.1783 58.0719
1 42.3306 38.7042 56.0262
1 41.9582 40.0608 58.0935
1 40.7376 37.9906 58.1645
1 41.089 36.7809 56.0119
1 43.5046 36.3433 56.0925
1 44.5119 40.1134 58.0847
1 43.3028 37.8581 58.0991
1 46.0165 36.568 56.0166
1 47.3106 38.7078 56.0681
1 47.2086 40.1897 58.1099
1 45.8788 38.0791 58.1876
1 48.5347 36.4947 56.0234
1 49.7882 38.634 56.0077
1 49.6924 40.2503 58.0343
1 48.5645 37.9933 58.0764
1 37.2665 43.3713 56.0544
1 36.8567 44.6793 58.1209
1 38.5087 41.1707 55.9708
1 39.7044 43.2878 56.0373
1 39.4297 44.5749 58.1191
1 38.1584 42.4142 58.1264
1 40.9646 40.9761 56.0865
1 42.1383 43.1829 56.05
1 41.9261 44.5946 58.135
1 40.6616 42.2407 58.0838
1 43.4258 40.9228 56.0108
1 44.5595 43.09 56.0171
1 44.596 44.4787 58.0681
1 43.2625 42.3407 58.1227
1 44.7231 38.6105 55.9812
1 45.8961 40.8951 56.0958
1 47.1216 44.6687 58.0685
1 45.8659 42.3366 58.1954
1 48.4053 40.9967 55.9442
1 49.7878 43.209 56.004
1 49.7081 44.6851 58.0778
1 48.4862 42.5611 58.0477
1 34.6397 47.7789 56.1771
1 34.4495 49.222 58.1399
1 35.9287 45.5429 56.0563
1 37.1497 47.7722 56.1036
1 36.8512 49.1152 58.154
1 35.5769 46.8734 58.1168
1 38.3484 45.5461 56.0363
1 39.5899 47.6749 56.0517
1 39.4129 48.9959 58.0727
1 38.1319 46.7875 58.1158
1 40.7881 45.4811 55.9844
1 42.171 47.6466 55.9496
1 41.9384 49.0127 58.1043
1 40.7607 46.7992 58.1182
1 43.2327 45.3925 55.9854
1 44.5839 47.5285 55.9995
1 44.5559 48.946 58.0023
1 43.3292 46.7426 58.1473
1 45.7753 45.2771 55.9661
1 47.1323 47.6148 55.9072
1 47.0878 49.0589 58.0288
1 45.8574 46.8832 58.1645
1 47.0859 43.098 56.0559
1 48.3687 45.3831 56.0216
1 49.7002 49.1084 58.0263
1 48.3782 46.876 58.1338
1 35.6406 50.0544 56.028
1 38.21 49.9196 56.0021
1 40.7405 49.8349 55.9519
1 43.2772 49.7943 55.9223
1 45.7517 49.7783 55.9836
1 48.2725 49.8062 55.9687
1 44.9378 35.7813 62.4534
1 47.6738 34.5483 60.2068
1 47.4999 35.7691 62.375
1 50.0398 34.3661 60.1102
1 50.04 35.711 62.4093
1 39.6788 38.7686 60.1693
1 39.374 40.114 62.2907
1 42.1677 38.6381 60.2783
1 42.0503 40.2615 62.2667
1 40.8058 38.1226 62.3525
1 43.6781 36.5218 60.3152
1 44.6692 38.744 60.2695
1 44.6218 40.22 62.3052
1 43.2714 37.8751 62.3965
1 46.1649 36.5487 60.3403
1 47.1567 38.7874 60.1541
1 47.2415 40.2738 62.2039
1 46.0103 38.0231 62.3309
1 48.7993 36.6295 60.2939
1 49.8255 38.821 60.1676
1 49.7578 40.2744 62.2794
1 48.4877 38.01 62.3299
1 37.2692 43.3214 60.232
1 36.9719 44.681 62.3505
1 38.4399 41.0729 60.2519
1 39.7003 43.2308 60.2096
1 39.4279 44.6482 62.3092
1 38.2136 42.4201 62.3112
1 40.8763 40.9668 60.2456
1 42.1328 43.1829 60.2661
1 41.9714 44.5946 62.3079
1 40.7182 42.2895 62.3883
1 43.4286 40.9183 60.2039
1 44.6431 43.1341 60.2227
1 44.6127 44.6728 62.2098
1 43.3571 42.4121 62.3568
1 45.9226 40.9739 60.1843
1 47.1855 43.1474 60.1853
1 47.1478 44.7289 62.2092
1 45.8763 42.4546 62.27
1 48.4921 41.0049 60.1081
1 49.7683 43.2417 60.1522
1 49.7548 44.7591 62.3048
1 48.4199 42.4889 62.2526
1 34.806 47.8467 60.2861
1 34.3955 49.1478 62.3486
1 36.0838 45.6626 60.2757
1 37.2562 47.82 60.2484
1 36.8106 49.0482 62.2538
1 35.7346 46.8606 62.3433
1 38.4258 45.5189 60.1974
1 39.6493 47.6518 60.1781
1 39.4251 49.1103 62.2842
1 38.1927 46.8925 62.2625
1 40.8273 45.4696 60.1998
1 42.1021 47.5694 60.2928
1 42.0002 49.1234 62.2618
1 40.7429 46.9445 62.3128
1 43.3177 45.3436 60.2463
1 44.6634 47.4991 60.1812
1 44.5549 49.0856 62.2714
1 43.2052 46.8804 62.334
1 45.9211 45.3216 60.1372
1 47.0678 47.5872 60.1915
1 47.1656 49.0762 62.29
1 45.7933 46.9087 62.3001
1 48.4839 45.3811 60.1725
1 49.706 47.6054 60.1312
1 49.767 49.0732 62.2489
1 48.3965 46.8945 62.2328
1 35.9667 50.0526 60.1957
1 38.4031 49.9616 60.1482
1 40.8923 49.8655 60.1872
1 43.4506 49.7696 60.1663
1 45.8575 49.7179 60.1649
1 48.3828 49.8146 60.1298
1 45.0243 35.979 66.5736
1 47.921 34.5574 64.4518
1 47.6256 35.7769 66.5314
1 50.2366 34.5022 64.5774
1 50.1005 35.8542 66.5299
1 39.872 38.8296 64.4502
1 39.5057 40.1986 66.5526
1 42.2614 38.727 64.4364
1 42.163 40.2414 66.5613
1 40.9007 38.209 66.655
1 43.8104 36.6155 64.4912
1 44.8316 38.7497 64.4126
1 44.7173 40.1539 66.4443
1 43.4548 37.9482 66.5734
1 46.2355 36.4849 64.4707
1 47.3388 38.7792 64.3666
1 47.2986 40.254 66.4971
1 46.1717 38.112 66.4955
1 48.8554 36.709 64.4256
1 49.882 38.9212 64.4396
1 49.8564 40.3538 66.4796
1 48.6347 38.0432 66.5273
1 37.282 43.3896 64.3981
1 37.039 44.6665 66.5198
1 38.5854 41.1211 64.4927
1 39.7624 43.326 64.3875
1 39.5449 44.5937 66.4314
1 38.2893 42.4088 66.4825
1 41.0344 41.0285 64.4574
1 42.2239 43.1701 64.4006
1 42.1283 44.6387 66.4485
1 40.813 42.3006 66.5421
1 43.4988 40.9868 64.4024
1 44.7021 43.1934 64.4491
1 44.7073 44.7628 66.4625
1 43.3837 42.5018 66.5868
1 46.0299 40.9513 64.417
1 47.1769 43.2469 64.3109
1 47.2549 44.7108 66.4879
1 45.9364 42.4711 66.4797
1 48.5555 41.0441 64.3885
1 49.7937 43.2512 64.3084
1 49.8481 44.7209 66.4524
1 48.6422 42.5762 66.4483
1 34.738 47.8169 64.4133
1 34.5948 49.1309 66.5413
1 36.101 45.6111 64.4381
1 37.1807 47.7398 64.3947
1 37.0051 49.0592 66.5304
1 35.7304 46.8523 66.4942
1 38.5376 45.5014 64.4106
1 39.6336 47.7067 64.4283
1 39.5486 49.1289 66.5861
1 38.2403 46.8396 66.5685
1 40.9834 45.5075 64.3451
1 42.1491 47.7484 64.3991
1 42.0955 49.1441 66.5833
1 40.7874 46.9267 66.4222
1 43.4189 45.4972 64.3379
1 44.6588 47.7076 64.4198
1 44.66 49.141 66.4871
1 43.4592 46.9686 66.4602
1 46.0324 45.4219 64.3975
1 47.236 47.6161 64.4227
1 47.2456 49.0596 66.5171
1 46.0107 46.9197 66.4751
1 48.5461 45.4966 64.3618
1 49.8065 47.628 64.274
1 49.7891 49.1756 66.4529
1 48.6102 46.8926 66.4567
1 35.8245 49.9854 64.4262
1 38.2826 49.9059 64.4178
1 40.8197 49.9042 64.4147
1 43.3986 49.8635 64.4096
1 45.9661 49.8689 64.4244
1 48.4628 49.9261 64.3953
1 44.9844 36.0811 70.912
1 47.9509 34.5688 68.7065
1 47.4876 35.8568 70.8226
1 50.2719 34.5812 68.5962
1 50.0378 35.7855 70.7905
1 39.9571 38.9589 68.7748
1 39.5468 40.3422 70.7826
1 42.3439 38.7515 68.7442
1 42.2771 40.3767 70.7815
1 40.9288 38.3114 70.8561
1 43.8641 36.668 68.6605
1 44.9306 38.836 68.6048
1 44.7983 40.2274 70.6868
1 43.5118 38.0221 70.7521
1 46.3358 36.5599 68.6308
1 47.3547 38.9065 68.6269
1 47.3909 40.3433 70.6697
1 46.148 38.2257 70.8096
1 48.8522 36.7772 68.6993
1 49.8499 38.9144 68.5663
1 49.9415 40.3409 70.5994
1 48.6203 38.117 70.6987
1 37.3375 43.2996 68.6656
1 36.9824 44.6733 70.741
1 38.6745 41.1519 68.6714
1 39.8002 43.3269 68.5349
1 39.5949 44.6412 70.7102
1 38.29 42.5341 70.7473
1 41.0612 41.0653 68.6776
1 42.2696 43.288 68.6159
1 42.1922 44.7306 70.7228
1 40.9327 42.5012 70.7885
1 43.5753 40.9784 68.6237
1 44.8367 43.3001 68.6163
1 44.796 44.7995 70.6563
1 43.6175 42.4828 70.6358
1 46.0534 41.0779 68.5606
1 47.3195 43.2477 68.5602
1 47.355 44.8119 70.7076
1 45.9995 42.472 70.6457
1 48.6937 41.0879 68.5193
1 50.0046 43.3062 68.533
1 49.9187 44.8065 70.6247
1 48.6305 42.621 70.6413
1 34.7364 47.779 68.565
1 34.7592 49.2809 70.5896
1 36.0295 45.617 68.604
1 37.2186 47.8024 68.6011
1 37.2125 49.102 70.7103
1 35.6268 46.9359 70.712
1 38.5148 45.4989 68.6023
1 39.6676 47.7545 68.6092
1 39.6864 49.133 70.7034
1 38.2963 46.8727 70.6966
1 40.9646 45.4952 68.5046
1 42.178 47.6068 68.6336
1 42.1317 49.1078 70.739
1 40.8816 46.8391 70.7165
1 43.5235 45.4417 68.6275
1 44.7195 47.6595 68.6112
1 44.697 49.1818 70.6693
1 43.4599 46.9621 70.7404
1 46.0415 45.5203 68.5584
1 47.3605 47.6952 68.651
1 47.2726 49.1969 70.6514
1 46.0091 47.0435 70.6489
1 48.6654 45.5096 68.5406
1 49.9132 47.6825 68.5835
1 49.8533 49.2599 70.7209
1 48.5919 47.0498 70.6419
1 35.8829 50.0142 68.5811
1 38.3938 50.0377 68.5365
1 40.9674 49.8791 68.6386
1 43.4123 49.8761 68.5698
1 45.9869 49.8621 68.5448
1 48.5542 49.8737 68.5703
1 44.9665 36.2106 74.9805
1 47.8994 34.661 72.9107
1 47.459 35.9522 74.94
1 50.3007 34.615 72.8471
1 49.9862 35.962 74.9163
1 39.8378 39.0486 73.0233
1 39.702 40.4605 75.1139
1 42.2931 38.701 72.9989
1 42.3131 40.4593 75.0915
1 40.9875 38.3983 75.1968
1 43.778 36.6746 72.9069
1 44.8705 38.8418 72.9121
1 44.8645 40.487 74.9048
1 43.5807 38.2087 75.0203
1 46.2876 36.6024 72.8671
1 47.4001 38.9486 72.8229
1 47.4837 40.475 74.9513
1 46.1913 38.2777 74.9273
1 48.8601 36.8556 72.8326
1 49.9972 39.0057 72.7615
1 49.9721 40.437 74.8581
1 48.752 38.2076 74.9243
1 37.3119 43.4375 72.9358
1 36.9857 44.8621 74.9505
1 38.5709 41.2863 72.9895
1 39.795 43.2824 72.8391
1 39.699 44.7235 74.9929