5538
Atoms. Timestep: 20000
1 46.7055 40.6897 9.01455
1 47.5635 38.2329 9.12441
1 46.2969 36.902 10.9171
1 49.3921 37.0833 7.53891
1 48.4521 36.1386 9.99243
1 42.1376 39.6719 9.16431
1 39.9605 41.0545 9.27262
1 43.0212 39.3164 11.3521
1 42.3634 42.0857 9.04991
1 44.3666 40.1608 8.39883
1 44.9044 42.5771 8.86957
1 41.6465 40.8007 12.6153
1 45.9522 39.8033 12.1069
1 47.1718 42.8476 10.13
1 45.3181 38.9349 10.1768
1 47.9264 39.8317 10.9564
1 46.994 40.7989 13.9702
1 44.588 37.7864 12.3976
1 45.5659 35.559 12.9627
1 49.7155 36.7737 13.6303
1 47.6836 37.927 12.5613
1 48.014 35.6136 12.3349
1 38.9984 45.7085 9.80241
1 36.5698 44.0153 9.83543
1 37.7013 42.0328 9.02654
1 39.5104 41.5292 11.7846
1 39.9625 44.5367 12.4189
1 38.5963 43.4667 10.7965
1 40.4615 39.416 11.0622
1 41.3879 43.0675 11.2667
1 41.3147 45.4035 10.5119
1 40.1896 43.5957 9.23793
1 44.1989 41.1953 10.7186
1 46.9498 43.6533 14.1625
1 43.6517 43.7001 10.584
1 43.4932 42.4483 12.6003
1 45.0705 42.0435 14.5982
1 47.7164 44.2778 11.9207
1 45.8384 44.9421 9.71819
1 46.1665 42.1743 12.2384
1 49.0433 39.7352 13.1205
1 50.1179 44.0527 11.5923
1 48.0523 46.0916 10.0178
1 48.6454 41.9334 11.7813
1 37.6011 47.7966 10.2783
1 38.5269 50.2489 10.03
1 38.1807 44.0607 7.81401
1 35.5467 46.3291 10.6234
1 34.7193 45.7613 12.925
1 36.9625 46.1238 8.66734
1 37.0461 45.0774 12.0432
1 40.0588 48.6395 10.86
1 38.2761 49.116 12.4654
1 38.8725 46.7073 11.9802
1 40.9714 45.5184 14.33
1 42.9094 48.6767 11.8885
1 41.916 52.6258 12.024
1 41.2213 47.1039 12.3473
1 42.8145 45.077 12.4164
1 43.8541 47.8586 8.49521
1 44.4183 49.5725 9.99826
1 41.9936 47.6862 9.9381
1 43.7024 46.041 10.1331
1 45.2305 44.4953 12.2064
1 46.0484 49.0271 11.9445
1 45.797 47.4671 9.99939
1 49.4228 44.6645 14.0439
1 49.4108 46.3218 11.981
1 49.5167 48.9784 14.2085
1 46.7763 46.4806 12.0106
1 35.9337 48.4177 11.862
1 35.8068 50.0349 13.8798
1 41.0379 50.2005 12.1952
1 43.6292 51.8679 10.3845
1 44.4308 47.0388 12.2061
1 48.4045 48.3402 12.2679
1 41.2223 34.7797 18.1729
1 46.9085 32.741 16.5757
1 44.6014 33.3785 16.8913
1 48.9753 33.3707 17.2841
1 49.2106 35.3331 15.6377
1 40.1326 36.7714 17.8388
1 39.5215 39.1218 17.3328
1 41.6841 37.138 15.9514
1 40.5274 39.2433 15.1168
1 42.2739 35.7718 20.3518
1 43.262 35.2464 16.6716
1 42.1554 38.3844 13.7573
1 43.9562 39.999 13.7194
1 43.5362 36.3307 14.3322
1 43.4563 34.1118 18.8723
1 46.1086 37.3719 16.4232
1 45.985 38.5096 14.1113
1 45.3647 35.1636 15.4725
1 47.2093 35.0984 16.8337
1 48.6084 37.1373 17.0105
1 48.4739 38.4895 14.9008
1 47.2881 36.3348 14.586
1 35.0613 43.6129 16.4769
1 38.2592 43.289 13.4023
1 36.9578 39.2031 17.6698
1 38.3396 42.5557 15.9484
1 38.455 45.2909 14.2298
1 36.2183 41.4323 16.5267
1 38.2394 39.9255 15.5885
1 40.872 42.6169 16.1595
1 41.6044 43.1403 13.6748
1 39.8162 41.4733 14.3138
1 42.2145 39.2873 16.9918
1 43.4104 42.6749 16.2377
1 43.7919 44.1631 14.3891
1 42.1936 41.0506 14.9501
1 44.1208 38.1291 15.581
1 47.0075 41.9386 16.2234
1 45.5188 43.9485 16.2563
1 44.3283 40.3941 16.1069
1 46.6937 39.6309 16.0664
1 48.558 43.7071 16.2776
1 51.807 44.2954 13.5823
1 48.8367 42.0009 14.3622
1 33.8883 45.2626 15.172
1 33.4703 47.4989 16.048
1 35.7864 43.8279 14.0636
1 35.7433 46.6855 15.8975
1 35.6077 49.0393 16.0692
1 34.5378 48.0304 13.9374
1 37.0639 44.5694 15.9471
1 38.2646 46.9444 16.0936
1 37.5857 48.7847 14.8161
1 36.7815 46.9624 13.6525
1 39.5792 44.5709 16.1773
1 40.8235 46.8552 16.3494
1 41.9426 48.8679 14.0905
1 39.6826 47.613 14.1354
1 42.0917 44.7441 16.4026
1 42.7473 48.0586 16.2126
1 44.5509 48.7515 13.9442
1 43.0849 46.676 14.2826
1 44.0536 45.9987 16.3346
1 45.8179 47.6809 15.8743
1 46.8946 48.978 14.2626
1 45.7083 45.8418 14.2937
1 47.1266 45.8088 16.2812
1 49.433 46.1186 16.0935
1 48.2539 48.3758 16.1387
1 48.112 46.7614 14.1805
1 33.4937 49.9797 16.8771
1 37.4099 50.6354 16.2168
1 39.392 49.0559 16.4689
1 41.4987 50.2211 16.1616
1 44.6655 49.5092 16.3719
1 46.8227 50.6336 16.3398
1 44.587 35.2237 20.6192
1 46.1948 33.887 18.83
1 47.1652 34.972 21.0002
1 48.3483 33.3024 19.5427
1 49.6607 34.6494 21.2003
1 38.4149 38.0483 19.3118
1 39.3128 40.1989 20.1791
1 40.9195 38.6055 19.1846
1 42.0412 40.2785 20.4329
1 40.2494 37.3602 21.0713
1 42.6 37.1434 18.2035
1 44.6008 38.6721 18.1721
1 44.5003 40.1051 20.3256
1 43.1302 38.0405 20.3085
1 44.9704 36.2022 18.3986
1 47.1199 38.7757 18.2241
1 46.8689 40.0961 20.4212
1 45.639 37.7551 20.312
1 47.2645 36.3006 18.9915
1 49.5207 38.9524 18.3265
1 49.6165 40.3433 20.473
1 48.3041 37.9772 20.5223
1 36.828 43.2674 18.2421
1 36.621 44.6204 20.2735
1 38.2246 41.391 18.1408
1 39.4836 43.3489 18.2274
1 39.1433 44.589 20.4893
1 38.0302 42.5152 20.2606
1 40.8166 41.1103 18.2015
1 41.9966 43.1747 18.2797
1 41.7959 44.687 20.5048
1 40.5427 42.2925 20.3093
1 43.348 41.0109 18.2669
1 44.4401 43.195 18.4192
1 44.4927 44.6757 20.4638
1 43.193 42.4235 20.445
1 45.7136 40.9713 18.1314
1 46.9783 43.269 18.2584
1 47.0282 44.5677 20.4644
1 45.7054 42.3128 20.4259
1 48.1215 41.0002 18.3652
1 49.6329 43.0713 18.3743
1 49.5926 44.6534 20.3594
1 48.1882 42.3101 20.3795
1 34.2183 47.9042 18.2989
1 34.4807 49.0726 20.3241
1 35.5934 45.5497 18.0797
1 36.8696 47.7997 18.0534
1 36.8787 49.0545 20.296
1 35.5198 46.7309 20.24
1 38.0482 45.4288 18.1609
1 39.2428 47.5845 18.3139
1 39.344 49.0719 20.4908
1 37.8902 46.7582 20.2227
1 40.7168 45.4905 18.443
1 41.9418 47.6336 18.431
1 41.9418 49.098 20.3318
1 40.5892 46.9535 20.4627
1 43.2183 45.4093 18.4444
1 44.5561 47.705 18.1756
1 44.5342 49.0046 20.281
1 43.2196 46.8776 20.4594
1 45.7947 45.4854 18.2903
1 46.9563 47.6574 18.1546
1 47.0893 49.0863 20.2862
1 45.7224 46.8368 20.3223
1 48.3663 45.3834 18.2239
1 49.6855 47.654 18.2426
1 49.5452 48.9648 20.3018
1 48.3026 46.8655 20.2188
1 35.5409 49.9824 18.352
1 38.0677 49.8755 18.2557
1 40.5617 49.7059 18.4097
1 43.0467 49.865 18.1951
1 45.6592 49.8554 18.4114
1 48.3553 49.8247 18.2798
1 44.6075 35.8822 24.5846
1 48.3924 34.1157 23.2867
1 47.0477 35.6786 24.6408
1 50.9141 34.0147 23.1121
1 49.6798 35.5971 24.7129
1 39.3242 38.7632 22.6135
1 39.4571 40.4325 24.6231
1 42.0253 38.6728 22.4172
1 42.0518 40.3165 24.4736
1 40.6652 38.3344 24.5142
1 43.5187 36.5 22.4517
1 44.5906 38.7514 22.3855
1 44.5973 40.1693 24.5125
1 43.1385 37.9459 24.6104
1 45.9802 36.4752 22.4134
1 46.9794 38.7861 22.4651
1 47.0205 40.3347 24.6823
1 45.7576 37.9438 24.5235
1 48.4645 36.4347 22.4975
1 49.5274 38.7083 22.6215
1 49.6675 40.2619 24.5366
1 48.3605 37.9674 24.5962
1 37.1672 43.3757 22.3486
1 36.7534 44.6412 24.4933
1 38.3214 41.0589 22.4785
1 39.4917 43.236 22.4996
1 39.3369 44.6908 24.5604
1 37.9797 42.4886 24.5088
1 40.7581 40.9281 22.3941
1 42.0729 43.2003 22.51
1 41.8309 44.7378 24.4475
1 40.7345 42.4896 24.5511
1 43.3107 40.9435 22.3591
1 44.5564 43.2433 22.4763
1 44.4791 44.7865 24.6413
1 43.2757 42.5224 24.4824
1 45.8077 41.0359 22.4497
1 47.1053 43.1349 22.499
1 46.9424 44.6473 24.6453
1 45.6709 42.4785 24.5251
1 48.2885 40.9897 22.3953
1 49.512 43.2667 22.3421
1 49.5288 44.6934 24.5604
1 48.3092 42.3948 24.5569
1 34.4628 47.7598 22.3468
1 34.3096 49.2249 24.6573
1 35.6252 45.3934 22.3212
1 36.796 47.6795 22.4518
1 36.7474 49.1107 24.674
1 35.3345 46.7829 24.4312
1 38.0974 45.4997 22.5432
1 39.3043 47.7162 22.4003
1 39.3395 49.1705 24.4323
1 37.8721 46.8885 24.6404
1 40.5213 45.458 22.4508
1 41.883 47.7097 22.4523
1 41.8506 49.0113 24.533
1 40.5493 46.9508 24.6472
1 43.2463 45.4561 22.4892
1 44.4158 47.7141 22.5035
1 44.455 49.2104 24.6148
1 43.1776 46.8942 24.4891
1 45.8668 45.3398 22.492
1 47.0158 47.6064 22.4233
1 47.092 49.2341 24.487
1 45.6289 46.9149 24.5828
1 48.3651 45.4369 22.4346
1 49.6092 47.4908 22.3636
1 49.6301 49.0424 24.4759
1 48.1517 46.8561 24.4988
1 35.5989 49.934 22.5
1 38.0335 50.0177 22.4327
1 40.6616 49.8404 22.4628
1 43.27 49.7852 22.4837
1 45.7751 49.9291 22.4188
1 48.3325 49.7616 22.4241
1 44.6768 36.0155 28.8
1 47.6194 34.4723 26.6827
1 47.211 35.5766 28.6622
1 49.9698 34.3857 26.7384
1 49.6335 35.7482 28.7247
1 39.5325 38.9235 26.6313
1 39.2668 40.3494 28.7367
1 42.0418 38.7873 26.6785
1 41.9027 40.3705 28.7979
1 40.7323 38.3199 28.6893
1 43.4729 36.5039 26.6623
1 44.6557 38.7673 26.7848
1 44.5456 40.2574 28.8792
1 43.2257 38.1667 28.7494
1 45.9417 36.5126 26.6704
1 47.1006 38.8126 26.6761
1 47.0219 40.2934 28.8074
1 45.9026 37.9979 28.7441
1 48.4875 36.757 26.7075
1 49.7744 38.9209 26.522
1 49.5634 40.3269 28.7583
1 48.4537 38.0945 28.5931
1 36.7179 43.2152 26.5832
1 36.4878 44.5582 28.7479
1 38.0299 41.0415 26.626
1 39.4743 43.1067 26.6934
1 39.428 44.6416 28.7142
1 37.9849 42.4814 28.7056
1 40.8445 40.9415 26.6191
1 42.0369 43.3012 26.5903
1 42.0604 44.754 28.6152
1 40.7322 42.4245 28.7713
1 43.3499 41.0747 26.5632
1 44.4946 43.2051 26.7663
1 44.5146 44.6964 28.7646
1 43.2353 42.4048 28.7113
1 45.8072 41.1134 26.666
1 47.0577 43.2968 26.5967
1 47.152 44.8343 28.6713
1 45.8786 42.6435 28.7327
1 48.2556 41.0821 26.6896
1 49.6785 43.1672 26.6857
1 49.6406 44.6868 28.7283
1 48.347 42.5167 28.7352
1 34.2345 47.8486 26.7466
1 34.5118 49.0914 28.85
1 35.581 45.5498 26.6361
1 36.8251 47.6783 26.6346
1 36.8453 49.071 28.5627
1 35.5614 46.8759 28.7282
1 38.0708 45.2602 26.8004
1 39.2204 47.5939 26.5787
1 39.3043 49.0762 28.5861
1 38.1206 46.8532 28.7505
1 40.6608 45.4576 26.6969
1 41.9354 47.6562 26.6942
1 41.9103 48.9663 28.6346
1 40.5676 46.9283 28.7589
1 43.1623 45.5359 26.6467
1 44.5252 47.7034 26.6047
1 44.4117 49.1646 28.608
1 43.2422 46.9758 28.7654
1 45.8851 45.4647 26.7491
1 46.9764 47.4848 26.5587
1 47.1722 49.0793 28.746
1 45.6701 46.9293 28.7553
1 48.4621 45.3388 26.6156
1 49.4871 47.7317 26.6042
1 49.6772 49.152 28.6077
1 48.2998 46.8747 28.6761
1 35.3418 49.9974 26.6386
1 37.996 49.9932 26.542
1 40.5823 49.7728 26.5422
1 43.1416 49.8336 26.6385
1 45.8603 49.6928 26.5452
1 48.3003 49.7471 26.6813
1 47.599 34.6657 31.0174
1 50.0082 34.581 30.7981
1 39.3425 38.7093 30.7467
1 41.9747 38.6333 30.8626
1 43.4119 36.7445 30.8229
1 44.6035 38.8194 30.7648
1 45.929 36.5187 30.811
1 47.125 38.7993 30.8217
1 48.4681 36.8332 30.7215
1 49.6852 38.9329 30.8457
1 36.8336 43.1351 30.9059
1 38.3626 40.9295 30.9069
1 39.4242 43.1673 30.9351
1 40.6684 40.889 30.855
1 42.1018 43.219 30.758
1 43.2579 40.9191 30.8877
1 44.489 43.1064 30.8343
1 45.8352 41.1281 30.8563
1 47.0535 43.3315 30.8281
1 48.4392 41.0217 30.9931
1 49.573 43.2422 30.8422
1 34.3656 47.732 30.8243
1 35.529 45.3292 30.909
1 36.8675 47.5227 30.8882
1 38.0263 45.1985 30.7481
1 39.379 47.5702 30.8038
1 40.6735 45.3017 30.8034
1 41.9258 47.6792 30.8004
1 43.1916 45.4702 30.8745
1 44.4428 47.7135 30.7929
1 45.7492 45.3383 30.9405
1 46.9852 47.6457 30.9167
1 48.2641 45.4907 30.8251
1 49.6198 47.6887 30.7933
1 35.6799 49.9492 30.7551
1 38.1077 49.7604 30.856
1 40.6679 49.9099 30.724
1 43.0993 49.9297 30.7662
1 45.6624 49.9481 30.8117
1 48.4077 49.8291 30.7657
1 44.728 36.1087 32.9471
1 47.2357 35.8061 32.9284
1 49.7512 35.9968 32.7732
1 39.3753 40.2457 33.022
1 41.9483 40.3338 32.9675
1 40.7259 38.2132 32.9618
1 44.5305 40.3215 32.9411
1 43.249 38.0165 33.0284
1 47.1899 40.262 32.9964
1 45.8459 38.1209 32.9326
1 49.7403 40.3793 33.066
1 48.3162 37.9291 32.8838
1 36.7831 44.6331 33.0471
1 39.2635 44.4894 32.9349
1 37.9128 42.4189 33.0113
1 41.9629 44.7544 32.9054
1 40.6631 42.4231 32.8759
1 44.4386 44.7029 32.8365
1 43.3255 42.4864 32.9186
1 47.0405 44.8126 33.0579
1 45.9677 42.5721 32.8979
1 49.6244 44.7161 32.9495
1 48.3426 42.577 33.016
1 34.4649 49.1847 32.9734
1 36.8291 49.1271 32.9577
1 35.4246 46.9419 32.9512
1 39.3552 49.1859 32.919
1 38.101 46.8825 32.853
1 42.0123 49.1543 32.9942
1 40.6271 46.7396 32.839
1 44.4591 49.2264 32.8996
1 43.1972 47.0187 33.0272
1 46.9213 49.0097 32.7877
1 45.7609 46.9078 32.9257
1 49.6454 49.1791 32.8491
1 48.4112 46.9018 33.0833
1 44.7823 35.8209 37.0581
1 47.6114 34.4322 34.9801
1 47.3116 35.7875 37.1312
1 50.1102 34.4747 34.9111
1 49.8917 35.7034 37.2042
1 39.6779 38.7815 35.0226
1 39.289 40.3448 37.0993
1 42.0971 38.6895 35.1206
1 42.0715 40.0889 37.1544
1 40.7776 38.1867 37.3345
1 43.5755 36.4698 35.1818
1 44.5938 38.7291 35.0177
1 44.6835 40.3331 37.1476
1 43.2921 37.8511 37.1851
1 46.1494 36.5207 34.9702
1 47.1747 38.6799 34.9394
1 47.1132 40.2367 36.9944
1 45.9557 38.0605 37.0528
1 48.622 36.6934 35.0537
1 49.6613 38.8782 34.9142
1 49.586 40.2469 37.0471
1 48.4718 38.0321 37.1962
1 36.8712 43.334 35.0939
1 36.8487 44.8366 37.137
1 38.0615 41.0713 35.0594
1 39.4967 43.1228 35.0166
1 39.3539 44.7095 37.1656
1 38.0693 42.537 37.2182
1 40.7999 40.9289 35.1201
1 42.0811 43.2187 35.0323
1 41.9719 44.6863 37.1243
1 40.672 42.3191 37.2784
1 43.3825 40.9473 35.088
1 44.6312 43.1299 34.993
1 44.5756 44.6995 37.1408
1 43.2321 42.4574 37.1695
1 45.8801 40.8975 34.9626
1 47.0878 43.2823 35.0593
1 47.1552 44.7559 37.2482
1 45.9091 42.4617 37.1475
1 48.4552 41.1008 35.0099
1 49.6543 43.2174 35.0591
1 49.7014 44.8506 36.9764
1 48.4673 42.4741 37.1932
1 34.1477 47.6014 34.9345
1 34.3131 48.9536 37.1634
1 35.587 45.6223 35.0519
1 36.7817 47.8687 35.0335
1 36.801 49.326 37.1449
1 35.5122 46.9669 37.1392
1 38.078 45.5232 34.9795
1 39.5186 47.5913 34.9665
1 39.5029 49.1578 37.099
1 38.082 46.9779 37.0256
1 40.6588 45.3135 34.8942
1 41.9566 47.652 35.0866
1 42.0704 49.1955 37.0864
1 40.7448 46.946 37.1637
1 43.1494 45.498 34.98
1 44.5291 47.6609 35.1654
1 44.5432 49.1131 37.1509
1 43.2314 46.9537 37.0346
1 45.794 45.3476 35.1414
1 47.0351 47.6322 35.0047
1 47.0847 49.1364 37.0378
1 45.8771 46.856 37.2002
1 48.3186 45.5012 35.0788
1 49.6113 47.7482 34.9777
1 49.6787 49.1656 36.9912
1 48.434 46.9803 37.1205
1 35.4232 49.9645 34.9545
1 38.2424 49.7769 34.9769
1 40.7245 49.9368 34.9397
1 43.269 49.8486 35.105
1 45.752 49.775 34.9767
1 48.4624 49.8717 34.9064
1 44.6989 35.9286 41.3562
1 47.4214 34.4041 39.1318
1 47.1771 35.5924 41.3369
1 49.8965 34.3031 39.0645
1 49.8189 35.7394 41.3865
1 39.574 38.9647 39.2196
1 39.3861 40.5208 41.3303
1 42.182 38.6475 39.3442
1 42.0094 40.3334 41.3965
1 40.7247 38.382 41.4659
1 43.5992 36.5695 39.3122
1 44.8399 38.7814 39.2728
1 44.515 40.174 41.2776
1 43.1634 37.9477 41.3612
1 46.0209 36.4179 39.2697
1 47.1228 38.918 39.254
1 47.1477 40.3794 41.4358
1 45.9034 38.0997 41.3667
1 48.5411 36.6429 39.3492
1 49.7389 38.9662 39.2124
1 49.591 40.4567 41.3249
1 48.4769 38.1325 41.2839
1 36.6645 43.238 39.4261
1 36.7466 44.818 41.3992
1 38.1259 41.0055 39.4069
1 39.3806 43.1717 39.2696
1 39.5158 44.6506 41.2181
1 38.0472 42.6606 41.3605
1 40.8354 40.9668 39.1902
1 42.1149 43.3165 39.2227
1 41.9941 44.7606 41.3002
1 40.8113 42.3641 41.2296
1 43.434 40.9079 39.1455
1 44.6622 43.2508 39.1698
1 44.5265 44.8452 41.3652
1 43.2849 42.5305 41.1989
1 45.8543 41.0779 39.2457
1 47.159 43.2837 39.328
1 47.2323 44.8021 41.3238
1 45.7698 42.4227 41.3931
1 48.2554 41.1658 39.178
1 49.6797 43.4288 39.2715
1 49.6696 44.813 41.2823
1 48.379 42.618 41.2683
1 34.2302 47.6915 39.3575
1 34.3116 49.1804 41.4057
1 35.6907 45.6348 39.3426
1 36.9242 47.6569 39.1356
1 37.0003 49.2432 41.2949
1 35.576 47.1178 41.342
1 38.1798 45.406 39.2437
1 39.431 47.6135 39.2007
1 39.4107 49.153 41.4174
1 38.2406 46.7725 41.2606
1 40.6875 45.5556 39.2639
1 42.0211 47.8628 39.3184
1 41.9933 49.2259 41.4361
1 40.9397 47.1188 41.386
1 43.1728 45.4664 39.1603
1 44.5783 47.7874 39.2583
1 44.5113 49.2654 41.3112
1 43.4361 46.9672 41.1993
1 45.8715 45.4459 39.3203
1 47.2655 47.5427 39.0674
1 47.2643 49.1752 41.2107
1 44.6031 47.6219 43.4788
1 50.9962 45.5105 39.1082
1 49.7719 47.6989 39.0666
1 49.7255 49.1244 41.2499
1 46.0298 46.9884 41.271
1 35.5158 49.8326 39.2829
1 38.1108 49.7882 39.3078
1 40.7016 49.8516 39.2718
1 43.1794 49.9037 39.0835
1 45.7538 49.9281 39.2482
1 48.3476 49.9076 38.9972
1 47.1178 34.3118 43.4478
1 49.5825 34.5165 43.4396
1 39.5662 38.9119 43.5602
1 42.2412 38.81 43.4615
1 43.4062 36.5197 43.3883
1 44.6939 38.7165 43.519
1 45.9758 36.4637 43.3914
1 47.221 38.9312 43.4891
1 48.5112 36.7734 43.3845
1 49.7709 38.8174 43.3077
1 37.0234 43.455 43.4329
1 38.2859 41.1203 43.4802
1 39.5997 43.1335 43.4083
1 40.9524 40.9832 43.4807
1 42.1552 43.2583 43.4669
1 43.3894 40.9791 43.3351
1 44.6895 43.2951 43.4049
1 45.8847 41.0607 43.416
1 47.1565 43.1752 43.2837
1 48.6476 41.0817 43.4581
1 49.742 43.2803 43.2809
1 34.3421 47.6151 43.477
1 35.7676 45.5473 43.5887
1 36.9951 47.5291 43.523
1 38.3384 45.4838 43.4236
1 39.6005 47.7168 43.3979
1 40.7377 45.4867 43.5048
1 42.1783 47.8486 43.5136
1 43.2242 45.506 43.4028
1 46.0014 47.0355 45.5889
1 45.8597 45.6362 43.486
1 47.2604 47.685 43.2833
1 48.4169 45.462 43.4056
1 49.6935 47.6183 43.1923
1 35.5087 49.8328 43.4942
1 38.1614 49.9473 43.4406
1 40.7874 49.9686 43.4333
1 43.5097 49.9943 43.4893
1 45.8832 49.933 43.2589
1 48.4377 49.9466 43.3498
1 44.7183 35.9738 45.5134
1 47.2604 35.7483 45.4661
1 49.6378 35.9388 45.5301
1 39.3927 40.3698 45.6734
1 42.1495 40.3036 45.6852
1 40.7981 38.2497 45.5042
1 44.6244 40.3291 45.4726
1 43.3189 37.9539 45.4446
1 47.2323 40.3328 45.552
1 45.9519 38.0496 45.4902
1 49.8042 40.3812 45.4674
1 48.4423 38.1573 45.6047
1 36.9894 44.8097 45.6219
1 39.4548 44.9047 45.5372
1 38.1794 42.5066 45.5698
1 42.1466 44.7729 45.5056
1 40.7574 42.5243 45.5248
1 44.6575 44.7017 45.3674
1 43.3398 42.5737 45.4525
1 47.219 44.7647 45.5588
1 45.9522 42.6338 45.4561
1 49.6943 44.8766 45.3381
1 48.5248 42.5677 45.4574
1 34.3014 49.0671 45.61
1 36.8248 49.3168 45.4729
1 35.6927 46.9164 45.7395
1 39.5012 49.192 45.5764
1 38.2894 47.0423 45.5713
1 42.119 49.2174 45.4804
1 40.8758 46.9465 45.626
1 44.7396 49.3446 45.4898
1 43.3622 46.9348 45.5904
1 48.4354 51.467 45.3985
1 47.1365 49.2796 45.4979
1 49.8398 49.2381 45.5148
1 48.4272 47.0024 45.446
1 44.6068 36.0685 49.7373
1 47.3479 34.5816 47.7642
1 47.0754 35.8693 49.8655
1 49.7986 34.5199 47.7638
1 49.6366 35.8997 49.6355
1 39.5844 38.8865 47.6766
1 39.1593 40.2623 49.7933
1 42.101 38.7146 47.615
1 42.0198 40.181 49.7865
1 40.6861 38.1582 49.8114
1 43.4752 36.6472 47.6632
1 44.5558 38.9243 47.5406
1 44.4463 40.3155 49.6847
1 43.2855 38.0484 49.8149
1 45.921 36.6085 47.7273
1 47.1815 39.0167 47.6169
1 47.1597 40.4472 49.6594
1 45.9279 38.2967 49.8368
1 48.3445 36.8821 47.6673
1 49.8181 38.9733 47.666
1 49.6914 40.4505 49.7243
1 48.4371 38.1438 49.7452
1 37.0863 43.4339 47.7061
1 36.8202 44.6533 49.9325
1 38.1586 41.0801 47.7192
1 39.4859 43.491 47.5967
1 39.4372 44.764 49.7392
1 38.0507 42.5567 49.8835
1 40.6512 41.0325 47.7513
1 42.0827 43.2764 47.5876
1 41.9747 44.8022 49.8138
1 40.5889 42.4405 49.7294
1 43.1711 41.1134 47.5427
1 44.7159 43.3232 47.6641
1 44.5408 44.9135 49.6852
1 43.2145 42.7121 49.6771
1 45.798 41.0772 47.6867
1 47.0693 43.2805 47.6603
1 47.1353 44.7591 49.7296
1 45.8631 42.5158 49.7304
1 48.3929 41.2438 47.5889
1 49.7159 43.2872 47.5844
1 49.7449 44.8124 49.6856
1 48.4183 42.6099 49.6716
1 34.4236 47.7292 47.7086
1 34.5899 49.1073 49.6475
1 35.6614 45.3812 47.7841
1 36.8087 47.9202 47.7834
1 37.0225 49.2359 49.7646
1 35.8265 46.8729 49.7436
1 38.2293 45.733 47.8179
1 39.4726 47.7319 47.6175
1 39.5858 49.2789 49.6586
1 38.3455 47.1705 49.6925
1 40.8706 45.5788 47.6484
1 41.9766 47.7083 47.6707
1 42.2166 49.3573 49.7249
1 40.7959 47.0365 49.8737
1 43.3195 45.4555 47.6356
1 44.5555 47.7582 47.6053
1 44.708 49.2243 49.7003
1 43.3071 46.9769 49.7503
1 45.979 45.5162 47.5439
1 47.2355 47.8148 47.6722
1 47.3193 49.3976 49.7323
1 45.865 47.0921 49.6211
1 48.4317 45.5348 47.6419
1 49.7157 47.7629 47.5029
1 51.0692 50.1488 51.6897
1 48.4238 47.0384 49.7944
1 35.6781 49.9677 47.6198
1 38.2765 49.9594 47.6944
1 40.8316 49.9347 47.6729
1 43.3717 50.0385 47.532
1 45.8964 49.9231 47.6778
1 49.7936 49.3062 49.5422
1 44.7081 36.0217 53.9429
1 48.6723 34.4954 51.3105
1 47.2291 36.0078 53.9382
1 51.0949 34.3805 51.0098
1 49.8871 36.0757 53.9045
1 39.5593 38.8656 51.8598
1 39.184 40.4635 54.014
1 41.9906 38.7068 51.9117
1 41.8056 40.3939 53.7932
1 40.6622 38.1585 53.8622
1 43.2934 36.4215 51.9129
1 44.5306 38.9381 51.9113
1 43.2236 38.0957 53.9664
1 42.1032 35.9446 53.9893
1 45.8473 36.6111 51.9493
1 47.2139 39.1057 51.8409
1 47.1957 40.4545 53.8451
1 45.884 38.2684 53.8616
1 48.4394 36.8008 51.7117
1 49.9444 38.9869 51.7973
1 49.7662 40.4592 53.9245
1 48.4956 38.2923 53.8104
1 36.7561 43.2488 52.0396
1 37.0427 44.8517 54.0164
1 37.9926 41.097 51.8824
1 39.3593 43.5589 51.8322
1 39.3877 44.8388 53.9608
1 38.072 42.584 53.9584
1 40.4647 41.096 51.8124
1 41.7489 43.2142 51.8907
1 41.9526 44.7446 53.9285
1 40.4945 42.57 54.0528
1 43.0656 41.0455 51.8394
1 44.3567 43.3052 51.8789
1 44.6698 44.7932 53.9638
1 43.1614 42.5355 53.8376
1 45.8304 41.1573 51.7551
1 47.1718 43.3791 51.6623
1 45.8017 42.6258 53.8553
1 44.6146 40.236 53.8852
1 48.5304 41.117 51.8456
1 49.7359 43.3877 51.7597
1 49.8401 44.9534 53.9337
1 48.3856 42.5983 53.972
1 34.5814 47.7643 51.8265
1 34.5897 49.179 54.0888
1 35.6472 45.5394 51.9523
1 36.93 47.8033 51.9229
1 36.9975 49.2882 53.9011
1 35.557 46.8917 54.1912
1 38.0861 45.6901 51.9012
1 39.6245 47.8326 51.9897
1 39.5154 49.3969 53.8477
1 38.1994 47.2009 54.0324
1 40.7163 45.5833 51.8782
1 42.1484 47.8748 51.8781
1 42.1039 49.3013 53.8575
1 40.8728 47.01 54.1263
1 43.0963 45.5076 51.8635
1 44.6504 47.8251 51.8808
1 44.6846 49.3246 53.8736
1 43.2769 47.0161 53.894
1 45.7041 45.5003 51.8442
1 47.1699 47.8431 51.8298
1 47.2535 49.3054 53.9261
1 45.9432 46.986 53.9917
1 48.3949 45.5749 51.8294
1 49.8897 47.8602 51.6818
1 48.5339 47.1162 53.7313
1 47.1765 44.8836 53.7967
1 35.5623 50.0003 51.9081
1 38.3522 49.8979 51.6998
1 40.8411 50.0518 51.815
1 43.3559 49.9786 51.6855
1 45.8228 50.0498 51.7175
1 48.5478 50.0543 51.7875
1 44.8426 35.9885 58.2259
1 48.8062 33.9159 53.6638
1 47.3979 36.0107 58.1257
1 50.0048 34.6747 55.9359
1 49.8396 36.0265 58.0189
1 39.536 38.9729 56.0639
1 39.4517 40.5308 58.0345
1 42.199 38.9296 56.0284
1 42.2237 40.3335 58.258
1 40.7702 38.2073 58.0329
1 40.9966 36.9824 55.9496
1 43.5117 36.5675 56.2072
1 44.7422 40.2597 58.1023
1 43.3716 38.0269 58.1976
1 46.0282 36.5606 56.025
1 47.3881 38.9029 55.9598
1 47.2584 40.4276 58.0119
1 46.0753 38.1023 58.0918
1 48.5265 36.7319 55.9732
1 49.8619 39.0729 56.0191
1 49.8098 40.3682 58.0633
1 48.4736 38.3089 58.0172
1 36.9697 43.3413 56.1471
1 37.1111 45.0045 58.2708
1 38.1264 41.1919 56.1406
1 39.4089 43.3075 56.0428
1 39.553 44.7737 58.1431
1 38.1243 42.7274 58.2783
1 40.7477 41.1537 56.188
1 41.9933 43.2898 55.8949
1 42.0409 44.7867 58.0651
1 40.7483 42.6496 58.2418
1 43.3228 41.0572 55.9084
1 44.566 43.213 55.9048
1 44.6146 44.7069 57.9877
1 43.379 42.6192 57.9949
1 44.6324 38.7633 55.9515
1 45.9976 41.0568 55.9745
1 47.2524 44.7827 58.1169
1 46.0982 42.5295 58.0588
1 48.4405 41.1459 55.9658
1 49.6655 43.4597 56.0401
1 49.7219 44.766 58.0486
1 48.5249 42.5237 58.0323
1 34.2876 47.8014 56.105
1 34.6499 49.1728 58.3728
1 35.541 45.5498 56.1264
1 36.9076 47.767 56.0573
1 37.1189 49.1622 58.1974
1 35.5736 46.9304 58.1899
1 38.1688 45.4946 56.05
1 39.3871 47.8685 55.9007
1 39.5293 49.3232 58.1577
1 38.2929 47.1204 58.1563
1 40.7441 45.5735 55.9604
1 42.0591 47.7978 56.0744
1 42.0361 49.3156 58.1601
1 40.8257 46.961 58.0136
1 43.361 45.5219 55.9487
1 44.6603 47.7337 56.0379
1 44.5075 49.2793 57.926
1 43.4578 46.9905 58.0627
1 46.0005 45.541 56.0894
1 47.2364 47.8495 55.9192
1 47.2018 49.3332 58.0034
1 45.9258 46.8697 58.1697
1 47.1334 43.3234 55.9371
1 48.6012 45.6057 55.8883
1 49.806 49.1845 58.1584
1 48.5295 47.0405 58.0774
1 35.6539 49.8614 56.0636
1 38.2026 50.1672 56.0856
1 40.9301 50.0163 56.0741
1 43.4373 50.0334 55.9679
1 45.9184 50.0184 55.934
1 48.483 50.0002 55.9327
1 44.9438 35.8357 62.306
1 47.6978 34.5247 60.073
1 47.6618 35.9898 62.3593
1 49.9244 34.7449 60.0371
1 50.1403 36.0314 62.3057
1 39.6567 39.0202 60.2361
1 39.4357 40.4501 62.2946
1 42.1198 38.6841 60.2416
1 42.3203 40.3716 62.2986
1 40.8854 38.3839 62.4306
1 43.6759 36.666 60.2116
1 44.7759 38.7826 60.2512
1 44.7244 40.2927 62.3125
1 43.3422 37.9833 62.4659
1 46.297 36.4909 60.2588
1 47.369 38.9717 60.1365
1 47.2649 40.3925 62.2715
1 46.0272 38.1181 62.3041
1 48.7672 36.9632 60.1217
1 49.8409 39.0033 60.1977
1 49.8608 40.421 62.3227
1 48.6147 38.2187 62.2717
1 37.0866 43.413 60.3899
1 36.8751 44.6182 62.5075
1 38.4354 41.3664 60.2174
1 39.5687 43.4865 60.2027
1 39.4684 44.7624 62.309
1 38.2811 42.6113 62.3962
1 40.8779 41.1405 60.2487
1 42.095 43.3303 60.244
1 42.0304 44.7767 62.2912
1 40.7642 42.5314 62.3643
1 43.3628 40.9926 60.2435
1 44.5129 43.3697 60.1214
1 44.6896 44.778 62.2978
1 43.4583 42.6231 62.3028
1 46.0368 41.2432 60.1639
1 47.2351 43.3513 60.2846
1 47.2358 44.8312 62.4255
1 45.8869 42.5196 62.2625
1 48.487 41.132 60.3184
1 49.7622 43.4003 60.1492
1 49.9034 44.9678 62.2409
1 48.4781 42.6225 62.3744
1 34.5655 47.7262 60.3393
1 34.5538 49.2514 62.4219
1 35.8795 45.5591 60.365
1 36.943 47.8759 60.3701
1 37.0143 49.0844 62.3982
1 35.6021 46.7228 62.418
1 38.2598 45.6351 60.3209
1 39.541 47.7211 60.2237
1 39.5558 49.1657 62.3213
1 38.2612 46.9838 62.2914
1 40.8552 45.7239 60.3068
1 42.1154 47.7975 60.2404
1 42.0686 49.2976 62.3645
1 40.8473 46.9525 62.3365
1 43.3777 45.618 60.1145
1 44.6294 47.8498 60.1987
1 44.5073 49.1887 62.2558
1 43.4149 47.0678 62.2621
1 45.921 45.4918 60.2566
1 47.3119 47.7857 60.1236
1 47.0922 49.224 62.3067
1 45.9467 47.0576 62.2303
1 48.5426 45.5415 60.3139
1 49.8205 47.7538 60.265
1 49.6496 49.2634 62.0904
1 48.5079 47.11 62.3396
1 35.9132 50.1392 60.4262
1 38.2543 49.9946 60.312
1 40.7603 49.982 60.2071
1 43.3121 49.9905 60.1839
1 45.9223 50.0784 60.1225
1 48.5052 49.9663 60.1695
1 44.9576 35.9774 66.5531
1 47.3591 34.6422 64.3982
1 47.4971 35.989 66.4946
1 49.9875 34.6654 64.3204
1 49.9712 35.8861 66.4428
1 39.8255 38.9741 64.4452
1 39.279 40.3995 66.5227
1 42.2099 38.8488 64.5161
1 41.9648 40.3979 66.4259
1 40.8515 38.3593 66.5765
1 43.6986 36.6301 64.519
1 44.8456 38.8521 64.2964
1 44.6017 40.331 66.4918
1 43.4388 38.1367 66.5838
1 46.1361 36.6885 64.3683
1 47.4242 38.8839 64.3032
1 47.208 40.4484 66.4903
1 45.9736 38.2186 66.4415
1 48.7905 36.8618 64.2687
1 50.0206 38.9866 64.3692
1 49.8151 40.4567 66.4792
1 48.722 38.2014 66.357
1 36.9715 43.3625 64.5829
1 37.0177 44.826 66.4316
1 38.5946 41.3072 64.4039
1 39.6488 43.4156 64.5545
1 39.6416 45.014 66.493
1 38.3681 42.8236 66.5093
1 40.9094 41.213 64.3044
1 42.1791 43.2829 64.4175
1 42.0981 44.9385 66.4627
1 40.836 42.5686 66.5527
1 43.3904 41.0533 64.2746
1 44.6486 43.2966 64.3145
1 44.7551 44.8248 66.3813
1 43.4037 42.5398 66.4356
1 45.9794 41.1646 64.3814
1 47.2228 43.3663 64.4829
1 47.386 44.9419 66.5153
1 45.9187 42.6465 66.323
1 48.7266 41.184 64.3258
1 49.7411 43.4016 64.3642
1 50.0198 44.7593 66.438
1 48.5263 42.6043 66.4813
1 34.4551 47.7319 64.3908
1 34.7313 49.0465 66.566
1 35.448 45.3915 64.5346
1 36.9851 47.6365 64.3605
1 37.0514 49.1177 66.443
1 35.7217 46.8075 66.5607
1 38.2118 45.476 64.2904
1 39.5638 47.699 64.2731
1 39.5603 49.2469 66.4711
1 38.3783 47.0115 66.3432
1 40.9681 45.5234 64.3765
1 42.2088 47.7243 64.4166
1 42.22 49.2375 66.515
1 40.9691 47.1211 66.4537
1 43.5381 45.5414 64.4278
1 44.7671 47.6699 64.3848
1 44.8044 49.2287 66.4624
1 43.4987 47.1031 66.3951
1 45.9691 45.6249 64.4366
1 47.2391 47.8443 64.4463
1 47.3779 49.4182 66.407
1 46.0679 47.2691 66.5428
1 48.6269 45.6434 64.505
1 49.8112 47.7811 64.217
1 49.8815 49.294 66.2751
1 48.6071 47.0451 66.541
1 35.8291 50.0215 64.4133
1 38.341 49.8524 64.415
1 40.8471 49.9068 64.344
1 43.457 49.9467 64.3449
1 45.9837 49.963 64.3754
1 48.5156 49.9372 64.18
1 44.8721 36.067 70.6886
1 47.6757 34.782 68.7341
1 47.4847 35.9773 70.7882
1 49.9737 34.65 68.5302
1 49.8725 36.0887 70.5546
1 39.7377 38.9046 68.558
1 39.5116 40.3942 70.6525
1 42.1965 38.8465 68.6059
1 42.2462 40.4282 70.7771
1 40.9131 38.3435 70.818
1 43.7983 36.8102 68.6307
1 44.8852 38.979 68.6879
1 44.6804 40.313 70.6799
1 43.4758 38.0669 70.7039
1 46.1286 36.7823 68.6074
1 47.4625 39.0394 68.5791
1 47.1499 40.3593 70.6593
1 46.0543 38.1387 70.7814
1 48.7057 36.9278 68.5571
1 50.0125 39.0894 68.484
1 49.8716 40.3289 70.6442
1 48.5653 38.17 70.691
1 37.1778 43.41 68.6872
1 37.1967 44.8176 70.7187
1 38.5147 41.2441 68.5456
1 39.701 43.448 68.5238
1 39.594 44.9211 70.7583
1 38.316 42.6283 70.7688
1 40.9346 41.1723 68.8077
1 42.2411 43.3626 68.5592
1 42.2109 44.8325 70.6427
1 40.8844 42.6876 70.6683
1 43.4309 41.0417 68.5452
1 44.6231 43.4693 68.5417
1 44.7772 44.8163 70.6903
1 43.6103 42.6512 70.5855
1 45.9907 41.1948 68.5829
1 47.163 43.3588 68.4828
1 47.2326 44.8191 70.61
1 46.0596 42.4796 70.622
1 48.5009 41.1404 68.6228
1 49.8337 43.3182 68.602
1 49.7351 44.8443 70.6216
1 48.5895 42.5926 70.5706
1 34.566 47.6813 68.6555
1 34.4287 49.2215 70.5622
1 35.7707 45.4118 68.7204
1 37.097 47.8001 68.4468
1 36.9957 49.3526 70.7335
1 35.9154 46.949 70.5878
1 38.3075 45.6694 68.5318
1 39.6398 47.8515 68.4655
1 39.732 49.2786 70.4977
1 38.5672 47.1797 70.6288
1 40.8243 45.6609 68.6285
1 42.1328 47.8583 68.5224
1 42.2421 49.2265 70.7267
1 40.9806 47.1474 70.6117
1 43.3966 45.7004 68.5264
1 44.627 47.8713 68.7134
1 44.6943 49.2383 70.7921
1 43.4649 46.967 70.7489
1 45.9393 45.7271 68.5168
1 47.1766 47.8805 68.5991
1 47.3606 49.3234 70.7397
1 46.0464 47.1113 70.7577
1 48.5699 45.5722 68.4874
1 49.9952 47.8837 68.5293
1 49.9132 49.2159 70.7923
1 48.5526 47.0368 70.603
1 35.76 50.0378 68.5003
1 38.2717 50.0321 68.5014
1 40.8351 50.0411 68.5259
1 43.4387 50.0596 68.5934
1 45.9988 49.9491 68.601
1 48.6623 50.0096 68.565
1 44.8731 36.0316 74.9434
1 47.518 34.4585 72.6798
1 47.5425 36.1294 74.7799
1 49.8236 34.5854 72.8444
1 49.8659 35.9764 74.9832
1 39.7381 39.0507 73.0263
1 39.4368 40.2391 75.0829
1 42.2659 38.8226 72.8749
1 42.1973 40.4748 75.0085
1 40.9608 38.2301 75.1131
1 43.5559 36.773 72.7368
1 44.7901 38.948 72.7706
1 44.7084 40.263 74.8744
1 43.5264 38.0784 75.0254
1 46.1921 36.6873 72.8322
1 47.3457 39.0042 72.757
1 47.412 40.3899 74.7723
1 46.0531 38.2908 74.9282
1 48.7531 36.7583 72.7997
1 49.8209 38.9417 72.8255
1 49.8152 40.4485 74.9148
1 48.6403 38.329 74.8525
1 37.2 43.3275 72.7638
1 36.8905 44.6695 74.9311
1 38.6184 41.3214 72.9184
1 39.8918 43.3709 72.8762
1 39.6844 44.8096 74.8383