5538
Atoms. Timestep: 30000
1 46.6872 40.6819 8.78099
1 47.4087 38.3889 9.07563
1 46.0999 36.8023 10.6067
1 49.0171 37.6834 7.23509
1 48.3618 36.2358 9.96928
1 42.0439 39.6377 9.11013
1 39.8856 41.2078 9.16436
1 43.0811 39.5958 11.2858
1 42.3169 42.105 9.21082
1 44.3026 40.5589 8.41444
1 45.2613 42.7872 8.96683
1 41.6353 40.7977 12.7043
1 46.0197 39.9203 11.8749
1 47.375 42.8181 10.1533
1 45.1564 38.8988 9.98935
1 48.1286 39.8986 10.7148
1 47.1951 40.7004 13.8706
1 44.4809 37.7799 12.2489
1 45.5424 35.4829 12.5448
1 49.5556 36.8311 13.2904
1 47.5449 37.7874 12.2448
1 47.937 35.4001 12.1016
1 39.3726 45.8481 10.0325
1 36.3232 44.1179 9.87596
1 37.9618 42.7324 8.91719
1 39.4529 41.7236 11.788
1 40.1561 44.7015 12.2772
1 38.5517 43.7305 10.905
1 40.4832 39.5862 10.9409
1 41.4721 43.011 11.4767
1 41.7144 45.557 10.3292
1 40.42 43.5908 9.34859
1 44.4635 41.2907 10.6231
1 46.9737 43.9381 14.2191
1 43.5389 43.756 10.487
1 43.6156 42.3011 12.6443
1 45.2316 42.1994 14.4952
1 47.6942 44.4248 12.0708
1 46.2703 44.8452 10.1441
1 46.1142 42.3368 12.302
1 49.1042 39.6538 12.9664
1 50.063 44.14 11.67
1 48.3294 46.2746 9.87563
1 48.7016 41.9716 12.0976
1 37.8492 47.7447 10.2158
1 38.4107 49.9971 10.0293
1 38.9268 44.6564 7.91991
1 35.6864 46.4841 10.7767
1 34.87 45.7791 12.9862
1 37.1318 45.9682 8.74121
1 36.9544 45.0317 12.2264
1 40.2235 48.311 10.5132
1 38.6466 49.1874 12.2749
1 38.8472 46.7818 12.191
1 41.0214 45.7307 14.3085
1 42.8847 48.7734 11.7849
1 42.2907 52.4963 12.1285
1 41.2558 47.0967 12.3869
1 42.7507 45.1313 12.4221
1 44.2918 47.9546 8.21334
1 44.4056 49.4709 10.0877
1 42.3874 47.7338 9.60594
1 44.1325 46.012 9.83323
1 45.1181 44.5926 12.3182
1 45.9935 49.005 11.7372
1 46.0285 47.4598 9.74988
1 49.4404 44.8426 13.8997
1 49.3814 46.3876 11.9816
1 49.591 49.083 14.0785
1 46.8171 46.6703 12.0801
1 36.3211 48.6307 12.1354
1 35.7142 50.2013 13.8169
1 41.0326 50.2832 12.1642
1 43.8733 51.8398 10.1103
1 44.2955 47.0071 12.0036
1 48.4772 48.5959 12.1095
1 41.7315 34.805 18.0467
1 46.7453 32.6181 17.5594
1 44.7163 33.8869 17.4123
1 48.9909 33.6055 16.7462
1 49.0953 35.393 15.3083
1 40.1771 36.8102 17.432
1 39.5527 39.2103 17.0989
1 41.6824 37.1189 15.5015
1 40.4301 39.3371 14.9387
1 42.3608 36.0142 20.1626
1 43.1445 35.4145 16.2813
1 42.3632 38.4821 13.4487
1 44.0872 40.1658 13.5664
1 43.6436 36.3417 14.0121
1 43.3516 33.9138 19.5133
1 46.0768 37.4823 16.3218
1 46.049 38.5289 14.0545
1 45.2517 34.7678 15.0205
1 46.973 35.1113 16.7157
1 48.47 37.1418 16.8165
1 48.5038 38.3579 14.8246
1 47.0472 36.2854 14.2936
1 34.8482 43.599 16.6023
1 38.1708 43.2478 13.4777
1 37.1351 39.0735 17.5623
1 38.3869 42.4136 15.8606
1 38.6078 45.4501 14.2578
1 36.2717 41.3468 16.6076
1 38.1672 40.1423 15.3932
1 40.943 42.7462 16.1058
1 41.7088 43.3688 13.7621
1 39.9092 41.5183 14.1815
1 42.2034 39.2215 16.7635
1 43.4488 42.8228 16.2329
1 43.9243 44.3028 14.3932
1 42.243 41.0735 15.027
1 43.9748 38.271 15.3601
1 47.0931 42.0404 16.069
1 45.5498 44.0153 16.2483
1 44.4426 40.4975 15.9443
1 46.7989 39.684 15.9608
1 48.7549 43.9998 16.1414
1 51.8408 44.3942 13.4159
1 49.1765 42.2604 14.3851
1 33.9039 45.2978 15.1385
1 33.6306 47.6427 15.7449
1 35.9018 43.9784 14.2258
1 35.7787 46.4601 16.1775
1 35.7635 48.8745 15.9216
1 34.5252 48.089 13.7257
1 37.1789 44.4333 16.1631
1 38.1209 46.8627 16.1068
1 37.651 49.0587 14.6736
1 36.7811 47.0303 13.8292
1 39.6575 44.7341 16.2205
1 40.6238 46.9594 16.3201
1 41.8974 48.8743 14.1986
1 39.772 47.8003 14.2673
1 42.1107 44.8903 16.1373
1 42.7677 48.0051 16.3036
1 44.6073 48.8872 13.729
1 43.1828 46.7985 14.1385
1 44.2352 46.0234 16.2337
1 46.065 47.7968 15.594
1 46.9378 49.4763 13.9317
1 45.6817 46.115 14.1167
1 47.1547 45.7889 16.1518
1 49.6348 46.3516 16.0646
1 48.2603 48.5269 16.0102
1 48.0224 47.0457 13.9926
1 33.7091 50.0386 16.8115
1 37.3327 50.6091 16.4747
1 39.3589 49.1154 16.4272
1 41.5374 50.1743 16.2844
1 44.6144 49.3922 16.1941
1 46.8064 50.706 16.1252
1 44.8989 35.7344 20.1473
1 45.8329 33.5632 19.5323
1 47.16 35.102 21.105
1 48.1395 34.3365 18.9632
1 49.7376 35.0396 20.8102
1 38.6801 38.0529 19.2067
1 39.4142 40.234 20.3257
1 41.0485 38.8279 19.0069
1 41.9539 40.5216 20.3308
1 40.4788 37.3343 20.8594
1 42.5092 37.1195 18.0043
1 44.4141 38.7633 17.9612
1 44.4315 40.4437 20.1657
1 43.1678 38.2039 20.2781
1 44.7852 36.2856 17.8718
1 47.0599 38.8026 18.1757
1 47.0088 40.3468 20.1531
1 45.6672 38.0559 20.1635
1 46.9682 36.4254 18.952
1 49.4953 39.0805 18.1071
1 49.5353 40.4164 20.4169
1 48.2565 38.132 20.3089
1 36.743 43.3188 18.2532
1 36.7176 44.7676 20.331
1 38.2528 41.1606 18.1431
1 39.3483 43.2264 18.115
1 39.2877 44.7268 20.3482
1 38.1898 42.5962 20.2855
1 40.829 41.0839 18.0677
1 41.9627 43.2279 18.2846
1 41.7969 44.8887 20.3789
1 40.6739 42.5784 20.2943
1 43.2475 41.0873 18.1024
1 44.4847 43.2643 18.2697
1 44.4647 44.7511 20.3566
1 43.185 42.6453 20.328
1 45.7749 41.016 17.9648
1 46.9949 43.3376 18.1568
1 46.9402 44.7588 20.2642
1 45.8959 42.5925 20.1855
1 48.2343 41.2299 18.1515
1 49.6828 43.2339 18.3063
1 49.5814 44.7755 20.2816
1 48.4392 42.5438 20.282
1 34.1575 47.8598 18.2126
1 34.3141 49.1972 20.3044
1 35.3141 45.4744 18.2688
1 36.7003 47.6505 18.0648
1 36.642 49.0514 20.3421
1 35.254 46.8129 20.2702
1 38.116 45.5487 18.215
1 39.3224 47.6745 18.389
1 39.3414 49.138 20.5816
1 37.9545 46.8692 20.3369
1 40.581 45.3736 18.2909
1 41.7377 47.6166 18.4224
1 42.0076 49.0885 20.5594
1 40.5567 46.9304 20.506
1 43.1826 45.5214 18.2616
1 44.457 47.6966 18.1739
1 44.5252 49.0923 20.4135
1 43.2166 46.9054 20.3555
1 45.6552 45.569 18.2087
1 47.0085 47.7188 17.9841
1 46.9821 49.0965 20.2975
1 45.7097 46.9776 20.2817
1 48.3905 45.4409 18.2072
1 49.5067 47.6639 18.2067
1 49.5036 49.2035 20.2374
1 48.3082 47.0385 20.2864
1 35.6353 49.9397 18.1872
1 38.0658 49.8644 18.5423
1 40.5076 49.8131 18.4863
1 43.1411 49.858 18.3388
1 45.654 49.9518 18.3068
1 48.171 49.975 18.1267
1 44.6494 35.9592 24.4056
1 48.5779 34.3667 22.8672
1 47.1969 35.7719 24.3616
1 51.1318 34.464 22.7436
1 49.7476 35.8744 24.507
1 39.4603 38.87 22.3656
1 39.2041 40.2211 24.4624
1 41.9223 38.7499 22.2215
1 42.014 40.2718 24.5376
1 40.6201 38.1571 24.3188
1 43.5308 36.6425 22.176
1 44.5867 38.9514 22.3538
1 44.4618 40.166 24.4268
1 43.2332 38.0606 24.3377
1 45.8398 36.7275 22.3141
1 47.0566 38.8645 22.4186
1 47.0694 40.3174 24.5578
1 45.9199 38.0977 24.4807
1 48.387 36.7655 22.2498
1 49.5646 38.8557 22.4177
1 49.6875 40.3102 24.4254
1 48.452 37.9955 24.4932
1 36.9566 43.3201 22.2653
1 36.639 44.6664 24.4924
1 38.0111 41.0945 22.3223
1 39.5073 43.3889 22.3462
1 39.1944 44.6911 24.5592
1 37.9503 42.4835 24.4382
1 40.6638 41.0713 22.5273
1 41.9244 43.3053 22.452
1 41.8838 44.7914 24.54
1 40.5422 42.439 24.5589
1 43.1797 40.9934 22.3737
1 44.4853 43.2009 22.3233
1 44.4252 44.6989 24.4877
1 43.2144 42.4309 24.3316
1 45.7942 41.1189 22.3523
1 47.0097 43.3238 22.4093
1 47.0637 44.6205 24.4326
1 45.7363 42.4442 24.4766
1 48.2961 41.1266 22.434
1 49.6511 43.2793 22.3809
1 49.4884 44.7556 24.442
1 48.3706 42.4498 24.5468
1 34.2515 47.8112 22.4588
1 34.2921 49.2356 24.4739
1 35.6629 45.5466 22.4328
1 36.7722 47.649 22.4451
1 36.7599 49.1011 24.6096
1 35.4191 47.0014 24.4252
1 38.0967 45.5476 22.5248
1 39.3021 47.7049 22.5744
1 39.252 49.1699 24.6899
1 38.0477 46.8111 24.5719
1 40.6683 45.5576 22.4829
1 41.9022 47.6232 22.5138
1 41.7053 49.2035 24.7575
1 40.6331 46.9271 24.6494
1 43.2103 45.4596 22.3859
1 44.3666 47.739 22.5426
1 44.3594 49.1255 24.6394
1 43.2014 46.9893 24.5144
1 45.752 45.5548 22.3584
1 46.8905 47.7518 22.4293
1 46.999 49.225 24.5351
1 45.6809 46.9585 24.5711
1 48.2173 45.4932 22.3119
1 49.3735 47.7586 22.3475
1 49.6245 49.2322 24.4069
1 48.226 46.9364 24.5216
1 35.4486 49.9734 22.4089
1 37.9101 50.0126 22.5803
1 40.5102 49.8231 22.7471
1 43.1336 49.998 22.5295
1 45.6852 49.8606 22.5155
1 48.1418 49.9747 22.3748
1 44.6792 36.0511 28.6929
1 47.4168 34.5408 26.5578
1 47.1638 35.8391 28.6922
1 49.6554 34.3848 26.3081
1 49.8339 35.8031 28.6935
1 39.4837 38.7725 26.5926
1 39.219 40.2487 28.5908
1 42.0238 38.7375 26.6152
1 42.0667 40.1872 28.6634
1 40.6677 38.2081 28.7554
1 43.3446 36.663 26.4399
1 44.503 38.8598 26.436
1 44.4547 40.1391 28.6298
1 43.1392 37.8655 28.7526
1 46.035 36.5536 26.5488
1 47.1465 38.818 26.4758
1 47.1161 40.3554 28.6597
1 45.784 38.1356 28.5623
1 48.5639 36.7113 26.7089
1 49.6684 38.9792 26.5815
1 49.667 40.3775 28.7061
1 48.2873 38.1469 28.7217
1 36.9812 43.3542 26.5091
1 36.6351 44.6934 28.7647
1 38.2505 41.1711 26.4463
1 39.4925 43.231 26.5129
1 39.3921 44.6045 28.6761
1 38.1001 42.5593 28.7147
1 40.8165 40.8396 26.5522
1 41.9093 43.1711 26.5159
1 41.9119 44.7282 28.7107
1 40.7585 42.4501 28.6682
1 43.3105 41.1177 26.6203
1 44.5288 43.3216 26.5203
1 44.543 44.6208 28.743
1 43.3046 42.44 28.6149
1 45.8897 41.1288 26.5418
1 47.1681 43.2689 26.635
1 47.0983 44.8442 28.6766
1 45.7578 42.4692 28.6692
1 48.4035 41.2023 26.713
1 49.8054 43.3345 26.7008
1 49.5917 44.8226 28.8006
1 48.3068 42.5887 28.7712
1 34.2867 47.8417 26.5059
1 34.3657 49.0134 28.614
1 35.6782 45.5917 26.6106
1 36.7783 47.6955 26.6452
1 36.7539 49.1461 28.6301
1 35.4346 46.8987 28.6549
1 38.1379 45.5067 26.6345
1 39.3209 47.6896 26.7001
1 39.2851 49.1181 28.8539
1 38.0636 46.8419 28.7403
1 40.7117 45.4555 26.7043
1 42.0542 47.5587 26.5959
1 41.9601 49.1957 28.8341
1 40.7206 46.9683 28.7908
1 43.284 45.4698 26.6215
1 44.596 47.771 26.7213
1 44.5279 49.1868 28.77
1 43.289 46.8532 28.7198
1 45.8075 45.5277 26.6451
1 47.0386 47.7437 26.7206
1 46.9993 49.2082 28.7589
1 45.7374 46.8932 28.8292
1 48.4126 45.5076 26.6921
1 49.6233 47.7905 26.6428
1 49.5789 49.2832 28.7527
1 48.2214 47.0638 28.8044
1 35.3932 49.9768 26.7043
1 37.9933 49.9707 26.5986
1 40.5572 49.8703 26.7971
1 43.0992 49.9886 26.6603
1 45.6197 49.9528 26.5961
1 48.2435 49.9473 26.4977
1 47.1565 34.3483 30.8289
1 49.6067 34.3895 30.8365
1 39.4224 38.9001 30.8646
1 41.9329 38.7013 30.8351
1 43.532 36.5627 30.8414
1 44.5233 38.6906 30.7916
1 45.9815 36.5162 30.7572
1 47.0374 38.8048 30.7503
1 48.5597 36.6734 30.6573
1 49.6912 38.8839 30.7961
1 36.7479 43.2827 30.8564
1 38.2384 41.1473 30.8754
1 39.5605 43.4198 30.8343
1 40.7564 40.9479 30.7074
1 42.1085 43.3005 30.7266
1 43.3141 41.0906 30.7208
1 44.5606 43.3054 30.7974
1 45.8596 41.0385 30.6686
1 47.0775 43.3138 30.7205
1 48.3214 40.9648 30.9083
1 49.6043 43.258 30.8509
1 34.3452 47.7591 30.8974
1 35.6661 45.5028 30.6767
1 36.7555 47.6283 30.7912
1 38.118 45.464 30.7472
1 39.3825 47.6847 30.8602
1 40.6647 45.6106 30.8489
1 42.0644 47.6941 30.827
1 43.2322 45.4009 30.8299
1 44.4888 47.5537 30.8131
1 45.7453 45.4802 30.8188
1 46.9719 47.8141 30.7873
1 48.3664 45.4942 30.8569
1 49.6617 47.7917 30.8641
1 35.5171 49.976 30.8756
1 37.9769 49.8938 30.9358
1 40.689 49.7502 30.8126
1 43.1591 49.8626 30.8689
1 45.703 49.9191 30.8375
1 48.3804 49.9727 30.8501
1 44.7575 35.8643 32.9839
1 47.2142 35.9144 32.7301
1 49.8887 35.7788 32.8302
1 39.3915 40.5308 32.9759
1 42.0142 40.3853 32.862
1 40.6112 38.3966 33.0262
1 44.5382 40.2267 32.9248
1 43.2742 38.0152 32.909
1 47.1379 40.2458 32.8945
1 45.9649 37.9947 32.809
1 49.7662 40.3638 32.8986
1 48.4683 38.0982 32.797
1 36.7032 44.6882 32.9963
1 39.3472 44.6188 32.9511
1 38.1372 42.4931 32.8848
1 41.941 44.8297 32.8902
1 40.6785 42.4947 32.9085
1 44.5526 44.6621 32.8835
1 43.3068 42.574 32.9998
1 47.0776 44.7992 32.8558
1 45.8303 42.3718 32.7965
1 49.6146 44.818 33.0051
1 48.3768 42.6465 32.9625
1 34.5278 49.1684 32.9357
1 36.8505 49.0635 32.9298
1 35.3918 46.8248 32.8206
1 39.4143 49.0077 32.972
1 37.9766 46.8346 32.8644
1 41.985 49.0156 32.9271
1 40.6621 46.9212 32.9372
1 44.5611 49.1587 32.9649
1 43.3304 46.8064 32.8966
1 46.9895 49.1312 32.9572
1 45.8376 46.9633 32.9496
1 49.7408 49.24 32.9752
1 48.3468 46.8471 32.9816
1 44.6528 35.8762 37.1348
1 47.381 34.5238 35.0079
1 47.2459 35.784 37.0599
1 49.9689 34.5151 34.959
1 49.7026 35.8595 37.0657
1 39.3838 38.9834 35.0672
1 39.2692 40.4964 37.1105
1 42.0274 38.79 34.9284
1 42.2725 40.2679 37.1886
1 40.7419 38.4038 37.1026
1 43.5028 36.7209 35.0144
1 44.6042 38.8468 35.0161
1 44.6606 40.265 37.2057
1 43.2189 37.972 37.1383
1 45.9236 36.664 34.948
1 47.2206 38.8305 35.0443
1 47.3019 40.2764 37.1325
1 45.9262 38.1414 37.1391
1 48.5257 36.7476 34.9279
1 49.8024 38.9313 34.972
1 49.7256 40.2287 37.1903
1 48.4461 37.9661 37.1452
1 36.8377 43.3255 34.9591
1 36.9762 44.8201 37.0062
1 38.1335 41.2034 35.0018
1 39.5901 43.0891 34.9711
1 39.5973 44.5874 37.0795
1 38.0359 42.6715 37.0467
1 40.9347 40.8893 35.105
1 42.0784 43.2648 34.959
1 41.9782 44.478 37.0621
1 40.7105 42.4547 37.0618
1 43.3405 40.9236 35.0879
1 44.7378 43.3124 34.9768
1 44.6386 44.5888 36.9828
1 43.3513 42.4495 37.0473
1 45.8756 41.006 35.0267
1 47.1534 43.2444 34.9195
1 47.1285 44.6751 37.1469
1 46.102 42.3531 37.0716
1 48.5133 41.005 35.0348
1 49.716 43.2043 34.9878
1 49.6642 44.8132 37.153
1 48.5418 42.4729 37.1309
1 34.4141 47.8959 34.9626
1 34.5171 49.085 37.2851
1 35.4267 45.4348 35.0294
1 36.8984 47.5894 34.9695
1 36.9105 49.0597 37.1367
1 35.4977 46.7871 37.0411
1 38.2469 45.448 34.9763
1 39.4806 47.6931 34.9646
1 39.404 49.1003 37.0888
1 38.2189 46.9176 37.1581
1 40.7828 45.3746 34.9502
1 41.9919 47.6611 35.0505
1 41.9871 49.1526 37.1129
1 40.7124 46.8688 37.0724
1 43.3595 45.5174 34.9767
1 44.5448 47.7216 34.9469
1 44.5332 49.1347 37.0114
1 43.2002 46.8348 37.0097
1 45.8182 45.4762 35.0632
1 47.0496 47.6756 35.0633
1 47.0849 49.1019 37.1428
1 45.8015 46.8455 37.1359
1 48.2532 45.4073 35.0968
1 49.5569 47.7641 34.9616
1 49.5306 49.1556 37.0488
1 48.2954 46.9444 37.2086
1 35.7291 49.956 35.1011
1 38.1988 49.8659 35.0871
1 40.7353 49.807 35.0234
1 43.1982 49.8208 35.0889
1 45.8693 49.8451 35.0754
1 48.3801 49.8763 35.0748
1 44.7954 35.8183 41.3389
1 47.5274 34.4454 39.0618
1 47.2491 35.5292 41.3305
1 49.8954 34.288 39.093
1 49.7708 35.6133 41.3184
1 39.6033 38.9378 39.2941
1 39.3537 40.3694 41.4165
1 42.1965 38.7438 39.3051
1 42.1608 40.2789 41.3567
1 40.7821 38.2228 41.3938
1 43.4173 36.5047 39.3377
1 44.6056 38.8876 39.2795
1 44.6527 40.1257 41.4375
1 43.2341 37.9074 41.4283
1 45.9809 36.4907 39.311
1 47.1882 38.7945 39.3141
1 47.196 40.2906 41.3696
1 45.9722 37.9597 41.4203
1 48.5456 36.6138 39.2393
1 49.8732 38.8758 39.2747
1 49.738 40.1526 41.3047
1 48.5056 38.0068 41.2986
1 36.9261 43.3573 39.1848
1 36.7792 44.6661 41.3258
1 38.3199 41.2075 39.1431
1 39.6722 43.239 39.1432
1 39.5255 44.5423 41.3114
1 38.0782 42.5678 41.2216
1 40.9137 41.0583 39.2356
1 42.0713 43.2865 39.1873
1 42.0482 44.7026 41.3295
1 40.7707 42.4192 41.2776
1 43.3235 41.0222 39.2647
1 44.7007 43.1189 39.1378
1 44.5861 44.6298 41.4189
1 43.3485 42.4316 41.3632
1 45.8986 40.9349 39.2298
1 47.3893 43.1462 39.2042
1 47.2876 44.5981 41.1548
1 45.9107 42.4907 41.2927
1 48.4538 41.038 39.3153
1 49.9269 43.2773 39.2072
1 49.9272 44.7169 41.3825
1 48.407 42.5612 41.319
1 34.3698 47.7093 39.1322
1 34.3847 49.1624 41.3204
1 35.7005 45.51 39.2392
1 36.9425 47.6969 39.2416
1 36.9977 48.9469 41.3836
1 35.4003 46.8316 41.311
1 38.2232 45.404 39.1456
1 39.4395 47.6699 39.276
1 39.4361 49.0676 41.3054
1 38.1147 46.7964 41.1912
1 40.7577 45.5072 39.2083
1 42.0453 47.6845 39.1726
1 41.957 49.0999 41.2744
1 40.6606 46.8874 41.1973
1 43.3323 45.4302 39.0853
1 44.6558 47.5711 39.0492
1 44.6565 49.0762 41.2752
1 43.3669 46.8458 41.1398
1 45.9702 45.3984 39.1456
1 47.1465 47.6632 39.2908
1 47.1488 49.1304 41.2732
1 44.6471 47.5832 43.3568
1 51.0326 45.5348 39.2531
1 49.6239 47.6465 39.0928
1 49.5883 49.0327 41.1608
1 45.7893 46.8488 41.3233
1 35.6703 49.8787 39.2788
1 38.2113 49.9416 39.2269
1 40.7428 49.7286 39.106
1 43.3709 49.8476 39.1706
1 45.8362 49.869 39.2447
1 48.3893 49.9553 39.18
1 47.2716 34.1988 43.4399
1 49.6555 34.2998 43.4441
1 39.4317 38.8881 43.4998
1 42.048 38.659 43.4902
1 43.5355 36.4969 43.3268
1 44.608 38.6334 43.3949
1 46.0981 36.3866 43.3314
1 47.1903 38.844 43.5248
1 48.45 36.5881 43.3134
1 49.6652 38.7865 43.4766
1 37.0317 43.2739 43.5048
1 38.2418 41.1029 43.3703
1 39.6008 43.1265 43.3923
1 41.0649 40.8932 43.4512
1 42.1554 43.1854 43.4506
1 43.3995 40.9232 43.4192
1 44.6357 43.1361 43.4872
1 45.8276 40.9274 43.4811
1 47.15 43.1532 43.416
1 48.5505 40.9748 43.4238
1 49.7955 43.3023 43.3996
1 34.4038 47.8902 43.3301
1 35.6609 45.523 43.4335
1 36.9148 47.6974 43.4333
1 38.2188 45.4626 43.3286
1 39.518 47.5471 43.4213
1 40.838 45.3464 43.2538
1 42.0061 47.6014 43.3597
1 43.4439 45.4839 43.4126
1 45.8979 46.8249 45.4042
1 45.9765 45.3889 43.3659
1 47.1798 47.6379 43.3253
1 48.4384 45.4127 43.3379
1 49.7598 47.6476 43.2949
1 35.6973 49.8463 43.2875
1 38.3617 49.7663 43.4592
1 40.725 49.899 43.2736
1 43.3295 49.7587 43.3961
1 45.9237 49.817 43.3752
1 48.4537 49.9261 43.3166
1 44.8145 35.8453 45.4494
1 47.3922 35.7802 45.5009
1 49.845 35.7299 45.4854
1 39.4462 40.3253 45.4933
1 42.0938 40.1289 45.5234
1 40.7273 38.1702 45.4635
1 44.5555 40.0472 45.5166
1 43.3266 37.8776 45.4443
1 47.1505 40.3336 45.5447
1 45.9639 38.063 45.4472
1 49.7258 40.221 45.6125
1 48.6288 37.8715 45.452
1 36.8165 44.5516 45.4663
1 39.4542 44.6488 45.3603
1 38.2922 42.5904 45.5126
1 42.0554 44.6303 45.4832
1 40.7732 42.3634 45.5422
1 44.6673 44.7181 45.4307
1 43.3555 42.4032 45.4308
1 47.1486 44.6603 45.5213
1 45.8598 42.4257 45.514
1 49.6413 44.6623 45.4642
1 48.4522 42.4446 45.3871
1 34.5483 49.1115 45.5221
1 36.9962 49.1311 45.5256
1 35.5293 46.8799 45.4235
1 39.5902 49.0331 45.5539
1 38.1943 46.7378 45.5193
1 42.0758 49.0858 45.4013
1 40.8035 46.8747 45.5767
1 44.5444 49.0033 45.4078
1 43.343 46.8517 45.5314
1 48.3716 51.3279 45.452
1 47.168 49.0571 45.5108
1 49.6774 49.1229 45.4676
1 48.4046 46.9064 45.5149
1 44.7834 35.8245 49.6687
1 47.2543 34.3627 47.5771
1 47.4221 35.5119 49.796
1 49.8325 34.5184 47.6656
1 49.8987 35.798 49.7206
1 39.6431 38.8304 47.5408
1 39.3954 40.3394 49.6098
1 42.0634 38.6805 47.5606
1 42.1315 40.1238 49.7635
1 40.8374 38.0935 49.6905
1 43.5437 36.534 47.5403
1 44.598 38.7322 47.6965
1 44.727 40.0753 49.7061
1 43.4061 37.9356 49.6867
1 45.9565 36.5998 47.6538
1 47.2703 38.8019 47.5865
1 47.332 40.1307 49.6455
1 46.1471 37.9661 49.7554
1 48.4871 36.5292 47.6143
1 49.7741 38.7575 47.6511
1 49.8431 40.2391 49.6795
1 48.6559 37.9551 49.7525
1 36.8018 43.229 47.6163
1 36.926 44.8265 49.603
1 38.2618 41.0046 47.4253
1 39.6592 43.1067 47.6715
1 39.5783 44.6188 49.7955
1 38.246 42.5152 49.5524
1 41.0468 40.8743 47.6668
1 42.1738 43.2103 47.6349
1 42.0171 44.6408 49.7529
1 40.9283 42.3888 49.7231
1 43.4242 40.9732 47.7201
1 44.67 43.1935 47.5257
1 44.6811 44.6148 49.788
1 43.4193 42.4055 49.7164
1 46.0087 40.8448 47.6899
1 47.1662 43.098 47.6443
1 47.2343 44.7165 49.6829
1 45.9001 42.435 49.5672
1 48.4914 41.065 47.517
1 49.8102 43.2268 47.5646
1 49.8016 44.7573 49.7132
1 48.5462 42.5206 49.6166
1 34.5489 47.8493 47.6107
1 34.4873 49.2478 49.6659
1 35.5036 45.4995 47.5831
1 36.8574 47.5854 47.6239
1 37.0251 49.0333 49.6537
1 35.5325 46.8004 49.6919
1 38.3363 45.3371 47.5569
1 39.517 47.6112 47.6233
1 39.5197 49.1356 49.7391
1 38.2071 46.8568 49.6052
1 40.7841 45.2597 47.5126
1 42.0808 47.5998 47.5866
1 42.0009 48.9717 49.632
1 40.7326 46.786 49.7234
1 43.4562 45.3488 47.579
1 44.5742 47.6304 47.6564
1 44.5193 49.2171 49.6666
1 43.4009 46.7447 49.7047
1 46.0264 45.4402 47.6897
1 47.139 47.6233 47.708
1 47.1145 49.1554 49.6661
1 45.8354 46.9437 49.7499
1 48.4314 45.348 47.6843
1 49.7134 47.6317 47.5781
1 50.9667 49.8787 51.7983
1 48.5219 46.9174 49.7303
1 35.735 49.9857 47.7053
1 38.2761 49.8436 47.6069
1 40.8296 49.926 47.6306
1 43.3128 49.86 47.559
1 45.9015 49.9109 47.5397
1 49.7575 49.1805 49.845
1 44.76 36.0992 53.9639
1 48.8489 34.2045 51.5344
1 47.2509 35.9535 53.9979
1 51.2299 34.2316 51.124
1 49.8879 35.9538 53.9544
1 39.7076 38.8587 51.7819
1 39.5247 40.1319 53.8461
1 41.9874 38.6127 51.836
1 42.0025 40.2216 53.8544
1 40.7215 37.9087 53.9457
1 43.474 36.4797 51.7326
1 44.7327 38.6227 51.7738
1 43.2753 38.135 53.9624
1 42.2276 36.006 53.9715
1 46.1549 36.3597 51.7572
1 47.1991 38.8305 51.869
1 47.2271 40.3951 53.8792
1 45.8986 38.1237 53.8976
1 48.5292 36.5674 51.9163
1 49.8546 38.7519 51.7866
1 49.7982 40.3232 53.949
1 48.5014 38.2036 53.9808
1 37.0276 43.0813 51.7518
1 36.9374 44.5352 53.7704
1 38.3168 40.9698 51.708
1 39.6475 43.0515 51.6585
1 39.5512 44.5519 53.8558
1 38.1322 42.2495 53.8773
1 40.9519 40.9738 51.7463
1 42.2469 43.1967 51.6905
1 42.1003 44.6375 53.8292
1 40.7148 42.3378 53.8876
1 43.4956 40.8606 51.819
1 44.6947 43.1901 51.727
1 44.7443 44.7393 53.8153
1 43.3814 42.5118 53.8312
1 45.9723 41.0347 51.6743
1 47.2707 43.1153 51.7987
1 46.0696 42.4391 53.7868
1 44.691 40.22 53.879
1 48.5271 40.8842 51.788
1 49.8384 43.0697 51.8685
1 49.7487 44.7798 53.9489
1 48.4987 42.6347 53.9029
1 34.5266 47.7353 51.7499
1 34.495 49.0966 53.7621
1 35.6909 45.4601 51.5926
1 37.0381 47.6254 51.7834
1 36.9589 49.1957 53.7564
1 35.5954 46.6519 53.8592
1 38.2618 45.3801 51.7751
1 39.5356 47.6103 51.7441
1 39.588 49.0445 53.8365
1 38.0967 46.7905 53.8297
1 40.794 45.4753 51.855
1 42.1805 47.6661 51.7649
1 42.0516 48.9923 53.8197
1 40.7497 46.9527 53.8553
1 43.3715 45.4529 51.7574
1 44.7292 47.6041 51.8696
1 44.7045 49.1678 53.9092
1 43.4024 46.8911 53.7447
1 45.9566 45.3375 51.7455
1 47.2679 47.6791 51.7094
1 47.1761 49.1178 53.9181
1 45.9514 46.9002 53.8793
1 48.4356 45.4477 51.8261
1 49.66 47.7446 51.8137
1 48.4098 46.8762 53.8716
1 47.2604 44.7721 53.9113
1 35.6983 49.9439 51.7137
1 38.1691 49.8618 51.7613
1 40.7436 49.9823 51.7517
1 43.257 49.8874 51.7609
1 45.8819 49.814 51.7861
1 48.3855 49.9946 51.8139
1 44.7994 36.1643 58.1595
1 48.6947 33.9549 53.8098
1 47.2947 35.7833 58.0905
1 49.9287 34.5209 56.0591
1 49.7122 35.7808 58.2635
1 39.7929 38.9807 55.9915
1 39.4944 40.3517 58.1458
1 42.2843 38.8448 55.9371
1 42.0011 40.3641 58.1334
1 40.7397 38.155 58.1409
1 41.0944 36.7004 56.0855
1 43.4549 36.5255 56.2114
1 44.6174 40.2361 58.1655
1 43.2708 38.1598 58.0805
1 46.1132 36.5078 56.1187
1 47.2744 38.8757 56.0487
1 47.3233 40.3143 58.1881
1 45.9527 38.1067 58.1897
1 48.547 36.6294 56.0787
1 49.8631 38.759 56.1223
1 49.8967 40.2226 58.0727
1 48.4037 38.0057 58.2628
1 37.1397 43.2294 56.0458
1 36.87 44.5318 58.0975
1 38.4597 41.0931 56.0744
1 39.67 43.2994 55.9282
1 39.3783 44.6468 57.9973
1 38.383 42.4765 58.2193
1 40.9718 41.0982 55.9212
1 42.211 43.2046 55.8889
1 41.956 44.6419 58.0889
1 40.7912 42.4392 57.958
1 43.5236 41.0497 55.9284
1 44.7507 43.1322 55.9119
1 44.5757 44.685 58.1699
1 43.365 42.4879 58.1934
1 44.7642 38.7248 56.0271
1 46.0389 40.9702 55.9637
1 47.1902 44.6406 58.1695
1 45.9614 42.4868 58.1341
1 48.6354 41.0104 56.0342
1 49.8928 43.202 55.9373
1 49.6773 44.6934 58.1963
1 48.5819 42.4315 58.1324
1 34.5234 47.7795 55.9541
1 34.321 49.1046 58.1429
1 35.7815 45.4555 55.9395
1 36.9785 47.6665 55.8367
1 36.926 48.9859 58.0063
1 35.5217 46.8802 57.9597
1 38.2562 45.4714 55.9567
1 39.4565 47.7513 55.9427
1 39.5549 49.0902 58.009
1 38.178 46.7834 58.054
1 40.8168 45.4934 55.8896
1 42.0859 47.6963 55.9514
1 42.1126 49.1498 58.0091
1 40.6852 46.9005 58.108
1 43.3444 45.4201 56.0011
1 44.732 47.646 55.9539
1 44.5777 49.0689 58.0008
1 43.2728 46.9683 58.0682
1 45.8001 45.4151 56.0023
1 47.2122 47.6043 56.0722
1 47.1452 49.1112 57.9854
1 45.8276 46.905 58.1373
1 47.3694 43.1942 55.9871
1 48.4039 45.4093 56.1151
1 49.7573 49.2194 58.0651
1 48.402 46.8946 58.1481
1 35.5637 49.9457 56.0099
1 38.085 49.8455 56.052
1 40.7397 49.8997 55.8905
1 43.2325 49.9519 55.8573
1 45.8488 49.8769 55.9515
1 48.3834 49.8572 55.9415
1 44.8113 35.9959 62.3463
1 47.5879 34.5556 60.2218
1 47.4123 36.0252 62.3347
1 49.9384 34.4094 60.4129
1 49.835 35.8255 62.4239
1 39.6262 38.8731 60.3715
1 39.6727 40.3328 62.4275
1 42.1646 38.7297 60.1557
1 42.1826 40.2819 62.4106
1 40.914 38.0756 62.4424
1 43.4343 36.5906 60.2888
1 44.6792 38.7036 60.2167
1 44.7298 40.2877 62.3268
1 43.391 38.0708 62.3867
1 46.0469 36.5058 60.3229
1 47.1475 38.8446 60.186
1 47.2428 40.3793 62.2424
1 45.9408 38.1061 62.3263
1 48.6349 36.7761 60.306
1 49.8277 38.8744 60.2584
1 49.8386 40.3834 62.34
1 48.5348 38.2946 62.3864
1 37.1749 43.2519 60.3327
1 36.8218 44.7392 62.2916
1 38.3716 41.0037 60.3769
1 39.7311 43.2586 60.2947
1 39.5757 44.7127 62.4138
1 38.2756 42.6099 62.4707
1 40.9031 41.0347 60.2271
1 42.1514 43.2921 60.1882
1 42.0441 44.6959 62.2584
1 40.9601 42.5328 62.4245
1 43.2869 40.943 60.2487
1 44.6399 43.2485 60.3132
1 44.6485 44.7252 62.2979
1 43.3564 42.5533 62.4332
1 45.8302 41.0287 60.2339
1 47.2632 43.2049 60.2547
1 47.2962 44.7215 62.3082
1 45.9241 42.4677 62.3126
1 48.4238 41.0629 60.1468
1 49.7515 43.2402 60.1845
1 49.9442 44.8525 62.1981
1 48.6634 42.544 62.2957
1 34.5249 47.6609 60.2688
1 34.6019 49.2068 62.2773
1 35.945 45.5453 60.2362
1 37.0345 47.7108 60.0881
1 37.0595 48.9951 62.3777
1 35.715 46.9885 62.2954
1 38.3847 45.4363 60.1724
1 39.4963 47.6611 60.2394
1 39.6109 49.2175 62.2497
1 38.2975 46.8474 62.2908
1 40.7505 45.479 60.1346
1 42.0486 47.7005 60.1653
1 42.1118 49.1319 62.242
1 40.8432 46.9576 62.2453
1 43.1949 45.4549 60.1265
1 44.6433 47.6429 60.2079
1 44.6153 49.2026 62.3249
1 43.3436 46.8664 62.2775
1 45.8407 45.3414 60.2076
1 47.1723 47.6857 60.0985
1 47.1554 49.0766 62.3201
1 45.8896 46.9241 62.217
1 48.5052 45.4492 60.2021
1 49.7544 47.6989 60.2309
1 49.7084 49.2205 62.2427
1 48.5547 47.0347 62.3228
1 36.0506 49.9619 60.2029
1 38.3444 49.8342 60.1024
1 40.8477 49.8914 60.1324
1 43.3324 49.8465 60.1353
1 45.8897 49.9576 60.2024
1 48.4016 49.9525 60.2127
1 44.938 36.0473 66.6633
1 47.6322 34.7228 64.3115
1 47.359 35.8523 66.5854
1 50.0458 34.5731 64.4519
1 49.9314 35.8615 66.4564
1 39.7163 38.9639 64.4589
1 39.4249 40.2973 66.6984
1 42.1487 38.6596 64.6011
1 42.2148 40.3812 66.6696
1 40.8511 38.2757 66.625
1 43.6437 36.686 64.5175
1 44.8545 38.8511 64.4968
1 44.8409 40.3721 66.6932
1 43.4223 38.2046 66.7564
1 46.1116 36.564 64.4435
1 47.3066 38.9168 64.4495
1 47.4486 40.3485 66.6458
1 46.1063 38.2152 66.5906
1 48.7119 36.8389 64.4779
1 49.8859 38.89 64.4362
1 49.9501 40.3402 66.5361
1 48.6045 38.0982 66.468
1 36.9564 43.3469 64.453
1 36.8106 44.5821 66.5901
1 38.2716 41.1023 64.5455
1 39.7543 43.1299 64.53
1 39.534 44.5833 66.6845
1 38.2272 42.4743 66.559
1 40.9484 40.9093 64.6203
1 42.1656 43.2776 64.4995
1 42.1435 44.714 66.5252
1 40.8441 42.4737 66.575
1 43.4536 41.0421 64.4549
1 44.7467 43.2291 64.3934
1 44.6981 44.8127 66.5509
1 43.4828 42.5257 66.5183
1 46.0151 41.1216 64.5431
1 47.2936 43.1808 64.4568
1 47.2828 44.8425 66.4863
1 46.156 42.5504 66.5918
1 48.651 41.1233 64.4713
1 49.8937 43.2738 64.4162
1 49.8531 44.8295 66.3729
1 48.5893 42.6485 66.563
1 34.6967 47.7222 64.4619
1 34.7278 48.9695 66.4498
1 35.6596 45.5118 64.4551
1 37.0256 47.6423 64.479
1 37.1765 49.0567 66.5649
1 35.6789 46.7697 66.5693
1 38.2804 45.3823 64.4654
1 39.5983 47.695 64.3385
1 39.5192 49.1642 66.4125
1 38.3106 46.7934 66.4923
1 40.8036 45.4311 64.4434
1 42.116 47.6873 64.4439
1 42.1326 49.0997 66.4801
1 40.7918 46.8729 66.5219
1 43.4691 45.5114 64.4353
1 44.6797 47.688 64.2854
1 44.7158 49.1906 66.6018
1 43.4245 46.9189 66.538
1 45.9927 45.4685 64.5131
1 47.2243 47.6447 64.3959
1 47.189 49.2581 66.4854
1 45.9967 47.0001 66.556
1 48.5677 45.3909 64.3513
1 49.7302 47.6484 64.3607
1 49.7783 49.2765 66.5151
1 48.5787 46.9809 66.4281
1 35.8245 49.86 64.4352
1 38.3402 49.8915 64.4072
1 40.9212 49.9303 64.3568
1 43.3905 49.918 64.4614
1 46.0217 49.8233 64.3828
1 48.5344 49.8387 64.3462
1 44.8708 36.0559 70.8636
1 47.5035 34.4068 68.6035
1 47.4641 35.811 70.8556
1 49.9341 34.4281 68.5063
1 49.8774 35.8005 70.7451
1 39.6169 38.8566 68.731
1 39.5328 40.4852 70.7941
1 42.1203 38.692 68.8474
1 42.2064 40.4064 70.8808
1 40.8324 38.4454 70.953
1 43.7235 36.6236 68.6422
1 44.6905 38.9119 68.6395
1 44.778 40.3452 70.7672
1 43.5704 38.1965 70.8845
1 46.2111 36.7076 68.6753
1 47.3909 38.9069 68.7114
1 47.3628 40.3824 70.8798
1 46.0193 38.3 70.7463
1 48.6954 36.6293 68.7395
1 49.969 38.9489 68.6038
1 49.954 40.3506 70.6314
1 48.5985 38.2328 70.7217
1 36.9733 43.2933 68.7258
1 36.9948 44.7257 70.9245
1 38.394 41.0699 68.8828
1 39.6117 43.2561 68.6305
1 39.778 44.6755 70.6557
1 38.1494 42.5741 70.8444
1 41.0141 41.0361 68.8291
1 41.9785 43.2718 68.6777
1 42.2081 44.8087 70.7235
1 40.7867 42.524 70.8241
1 43.3564 41.1143 68.6918
1 44.7291 43.2552 68.6895
1 44.7651 44.967 70.7516
1 43.4951 42.6107 70.7093
1 46.024 41.043 68.7089
1 47.2767 43.4071 68.6943
1 47.3855 44.7984 70.641
1 46.0552 42.5012 70.7374
1 48.5713 41.244 68.6729
1 49.7604 43.4882 68.5548
1 49.9459 44.8777 70.7023
1 48.6553 42.655 70.727
1 34.2988 47.7566 68.6376
1 34.3303 48.9139 70.7787
1 35.7274 45.6037 68.6381
1 37.1129 47.6602 68.6403
1 37.1884 49.1154 70.6066
1 35.6997 47.0256 70.6347
1 38.2568 45.3053 68.6499
1 39.6547 47.6409 68.528
1 39.687 49.1152 70.6496
1 38.4343 46.7425 70.6051
1 41.0039 45.496 68.5607
1 42.2347 47.6429 68.5697
1 42.279 49.2052 70.7001
1 40.8691 47.0135 70.6627
1 43.5441 45.5015 68.679
1 44.7174 47.7842 68.6793
1 44.7911 49.2862 70.6275
1 43.3525 47.0322 70.7769
1 45.9761 45.5613 68.5549
1 47.3312 47.7482 68.4571
1 47.3155 49.2617 70.6679
1 46.0932 47.1731 70.6331
1 48.5054 45.6966 68.6394
1 49.8097 47.8352 68.5344
1 49.9113 49.3043 70.8004
1 48.654 47.0796 70.7373
1 35.6967 49.6918 68.7109
1 38.4361 49.8946 68.6076
1 40.9236 49.893 68.5444
1 43.4439 49.904 68.5688
1 46.054 49.9406 68.6031
1 48.5332 49.8956 68.6074
1 44.7851 35.9511 75.1472
1 47.5881 34.6006 73.0353
1 47.3335 36.1047 74.9463
1 49.9194 34.5238 72.9323
1 49.9525 35.843 74.9224
1 39.8183 39.0877 73.0227
1 39.5769 40.5519 75.0465
1 42.2827 38.8035 73.0141
1 42.2994 40.3494 75.0437
1 40.9906 38.3632 75.0935
1 43.6629 36.7898 72.8423
1 44.7328 39.0123 72.9795
1 44.9138 40.5913 74.9785
1 43.5271 38.1991 75.0103
1 46.1518 36.6561 72.8144
1 47.2413 38.8913 73.0282
1 47.3958 40.4217 74.8568
1 45.9983 38.2285 74.9663
1 48.741 36.813 72.7498
1 49.8596 38.9942 72.8473
1 49.9664 40.4739 74.8009
1 48.7489 38.1701 74.8865
1 37.0395 43.3038 72.9222
1 36.9634 44.9619 74.9764
1 38.3878 41.1922 73.002
1 39.5062 43.2751 72.9894