5538
Atoms. Timestep: 40000
1 46.8149 40.7705 8.97239
1 47.2697 38.3204 9.04732
1 46.2752 36.9475 10.688
1 49.0053 37.3173 7.4945
1 48.516 36.2897 9.87312
1 42.0415 39.7242 9.16247
1 39.9865 41.2344 9.35817
1 43.0467 39.5111 11.348
1 42.3992 42.0189 9.62566
1 44.2799 40.6483 8.50637
1 45.3639 42.8099 8.93344
1 41.8238 40.9611 12.808
1 46.0125 39.9212 12.0126
1 47.4365 42.8526 10.0817
1 45.2351 39.1078 10.0227
1 48.113 39.7778 10.8409
1 47.1704 40.6011 13.9995
1 44.4696 37.7332 12.2637
1 45.6882 35.6333 12.7131
1 49.7358 36.9188 13.5692
1 47.5078 37.9867 12.4877
1 48.0612 35.6656 12.2072
1 39.4322 45.9347 9.81508
1 36.4892 44.141 9.88715
1 37.8962 42.4792 8.93132
1 39.6632 41.8142 11.7883
1 40.1701 44.648 12.4469
1 38.6125 43.7216 10.9168
1 40.6152 39.6281 11.001
1 41.6589 42.9632 11.5651
1 41.7617 45.5305 10.4454
1 40.5158 43.6897 9.55802
1 44.4947 41.5025 10.7851
1 47.0647 43.9425 14.2385
1 43.6404 43.8452 10.4739
1 43.8118 42.4551 12.7388
1 45.1971 41.9923 14.5722
1 47.8563 44.2775 11.9761
1 46.098 44.7945 10.1405
1 46.3473 42.2494 12.3002
1 49.2497 39.8409 12.9934
1 50.1111 44.0352 11.6243
1 48.2756 45.9097 9.84892
1 48.8279 41.927 11.7453
1 37.7134 47.8445 10.247
1 38.7124 50.1811 9.76578
1 38.8765 44.3909 8.04544
1 35.8396 46.45 10.6951
1 34.9015 45.81 12.9458
1 37.2277 45.9342 8.71449
1 36.9882 44.9558 12.2217
1 40.2486 48.4463 10.3906
1 38.7786 49.3143 12.2151
1 38.8466 46.8315 12.0473
1 41.1115 45.7321 14.3119
1 43.0203 48.6406 11.6864
1 42.3177 52.3785 11.882
1 41.3067 47.0792 12.2897
1 42.7833 45.0683 12.4357
1 44.3452 48.0632 8.069
1 44.4389 49.2802 10.024
1 42.4093 47.764 9.65296
1 44.0051 46.1017 9.6758
1 45.2885 44.3666 12.2864
1 46.0467 48.9411 11.8266
1 46.0447 47.3886 9.85381
1 49.4457 44.7178 13.9592
1 49.4698 46.3355 12.0223
1 49.5671 48.9855 14.1229
1 46.9458 46.5305 11.9821
1 36.3171 48.5662 11.902
1 35.7464 50.2135 13.5652
1 41.1693 50.2124 11.9656
1 43.9615 51.6996 10.0861
1 44.4711 46.8596 11.9179
1 48.4752 48.4252 12.2207
1 41.6369 34.8878 18.0874
1 46.8546 32.7126 17.49
1 44.9744 34.1998 17.4697
1 49.3173 33.4293 16.9644
1 49.2641 35.3443 15.4535
1 40.1182 36.8058 17.7863
1 39.6938 39.0995 16.967
1 41.4179 37.4371 15.9394
1 40.2852 39.2476 14.6733
1 42.2949 35.8071 20.2789
1 43.3393 35.6858 16.5221
1 42.4148 38.4562 13.7506
1 44.227 40.0537 13.4949
1 43.5903 36.1807 14.0214
1 43.5101 33.7529 19.2441
1 46.0368 37.2745 16.5007
1 45.8689 38.334 14.1289
1 45.379 35.183 15.1705
1 47.2545 35.1072 16.8055
1 48.6503 37.1409 16.8944
1 48.5449 38.4897 14.8172
1 47.3037 36.316 14.449
1 35.1327 43.4671 16.5099
1 38.2186 43.2106 13.4357
1 37.2937 38.8945 17.4177
1 38.1674 42.4322 15.9617
1 38.6862 45.4332 14.2135
1 36.3338 41.1507 16.5753
1 38.1405 40.1143 15.4083
1 40.7438 42.2571 16.2578
1 41.7797 43.1953 14.0738
1 39.8032 41.5018 14.1736
1 42.261 39.273 17.1744
1 43.3529 42.5884 16.1886
1 44.0058 44.2754 14.4089
1 42.1758 40.7544 15.102
1 43.8895 37.9613 15.618
1 47.1677 42.0672 16.1292
1 45.5908 43.8883 16.3359
1 44.3879 40.3362 16.0462
1 46.6948 39.5623 16.115
1 48.6927 43.8371 16.1756
1 51.8698 44.3488 13.4468
1 49.022 42.307 14.1646
1 33.8878 45.1484 15.0453
1 33.4293 47.6415 15.7496
1 35.8809 43.9309 14.1719
1 35.7186 46.5963 15.82
1 35.7159 49.101 15.9278
1 34.6992 47.9757 13.7847
1 37.3025 44.7422 15.8516
1 38.2365 47.0849 16.0011
1 37.7367 49.1735 14.4235
1 36.8934 47.052 13.703
1 39.7505 44.4799 16.1847
1 40.7122 46.9369 16.2501
1 42.1517 48.8258 13.8945
1 39.8133 47.8023 14.0593
1 42.1495 44.7492 16.2537
1 42.8006 47.9553 16.1353
1 44.6353 48.5582 13.7121
1 43.2263 46.6619 14.0797
1 44.2106 45.9882 16.3005
1 45.8814 47.767 15.8489
1 46.8948 49.2529 14.0816
1 45.7031 46.1484 14.1121
1 47.1969 45.7102 16.1406
1 49.5478 46.282 15.9754
1 48.3476 48.4858 16.2022
1 48.0621 46.9699 14.1698
1 33.7008 49.855 16.8652
1 37.4426 50.6992 16.2097
1 39.379 49.2022 16.3294
1 41.6227 50.1209 16.2321
1 44.5201 49.5033 16.1368
1 46.7098 50.6737 16.1651
1 44.7917 35.4661 20.6044
1 46.0509 33.5599 19.5572
1 47.1607 35.008 21.0459
1 48.4443 34.2921 19.0039
1 49.7905 34.889 20.8841
1 38.5444 37.6637 19.4356
1 39.227 39.964 20.2759
1 40.9805 38.5675 19.1335
1 42.0247 40.3346 20.4082
1 40.4969 37.2544 20.9884
1 42.6703 37.083 18.3179
1 44.5606 38.7808 18.1522
1 44.4973 40.2243 20.345
1 43.1506 38.0837 20.3792
1 44.9159 36.286 18.4148
1 47.1625 38.7222 18.2511
1 47.0383 40.2806 20.3653
1 45.7606 37.8448 20.2901
1 47.2835 36.3912 18.9396
1 49.6384 39.0067 18.2401
1 49.6373 40.2985 20.4227
1 48.3954 38.0974 20.4083
1 37.0888 43.2401 18.0744
1 36.6682 44.4844 20.1781
1 38.2659 40.9422 18.1558
1 39.4889 43.0941 18.2925
1 39.133 44.6035 20.3012
1 38.0966 42.3744 20.2816
1 40.7807 40.8933 18.3035
1 42.0118 43.2191 18.1933
1 41.8415 44.5201 20.4882
1 40.5751 42.2501 20.3402
1 43.2909 40.9694 18.288
1 44.4758 43.2405 18.3847
1 44.5022 44.6691 20.4154
1 43.1667 42.4407 20.2886
1 45.8795 40.9305 18.1177
1 47.1106 43.321 18.2569
1 47.0275 44.6721 20.3045
1 45.7095 42.4799 20.3645
1 48.3202 41.1641 18.3329
1 49.6013 43.2593 18.3236
1 49.6856 44.7743 20.2413
1 48.3547 42.5066 20.3947
1 34.4188 47.6892 18.0651
1 34.4412 49.0171 20.1629
1 35.6199 45.3641 17.9318
1 36.8497 47.6767 17.866
1 36.8349 48.9763 20.2714
1 35.5235 46.7761 20.0787
1 38.1529 45.3753 18.0792
1 39.3712 47.5721 18.3262
1 39.2658 48.9818 20.4044
1 37.9097 46.7851 20.2192
1 40.6728 45.4304 18.3381
1 41.9421 47.65 18.3175
1 41.8482 49.1553 20.4666
1 40.5618 46.7753 20.4176
1 43.2502 45.3082 18.4291
1 44.4526 47.6482 18.0776
1 44.3763 49.0519 20.3419
1 43.0749 46.787 20.4762
1 45.7165 45.4108 18.1568
1 46.9494 47.5262 18.0983
1 46.9745 49.1088 20.2765
1 45.6045 46.9043 20.2674
1 48.3644 45.3941 18.198
1 49.4351 47.6585 18.1864
1 49.5164 49.1475 20.1708
1 48.1685 46.9259 20.2956
1 35.7055 49.8901 18.2349
1 38.0975 49.8249 18.313
1 40.6478 49.7116 18.3553
1 43.0914 49.7739 18.1673
1 45.6371 49.8179 18.2463
1 48.1241 49.8267 18.249
1 44.5985 35.9062 24.6267
1 48.4955 34.2954 23.0343
1 47.1531 35.5683 24.6067
1 51.0342 34.3005 22.9809
1 49.6549 35.8602 24.6275
1 39.3874 38.7465 22.5425
1 39.1579 40.1955 24.5691
1 41.9523 38.5561 22.3869
1 41.9164 40.2625 24.5261
1 40.635 38.2608 24.5831
1 43.6026 36.6142 22.4469
1 44.5714 38.7799 22.4426
1 44.4349 40.0866 24.519
1 43.1392 37.9661 24.6037
1 46.0694 36.5461 22.5457
1 47.0959 38.8132 22.4282
1 47.0377 40.2921 24.4874
1 45.7636 38.1074 24.6419
1 48.6102 36.6923 22.3831
1 49.642 38.8683 22.4712
1 49.5534 40.276 24.4682
1 48.3484 38.0206 24.4615
1 36.7311 43.2629 22.3942
1 36.7178 44.5215 24.5117
1 38.1677 41.0297 22.3502
1 39.4165 43.2106 22.4087
1 39.1369 44.636 24.525
1 37.8788 42.2939 24.474
1 40.6262 40.8719 22.3845
1 41.9177 43.0742 22.527
1 41.8532 44.5435 24.5344
1 40.4428 42.272 24.5312
1 43.2878 40.9352 22.5228
1 44.4896 43.2295 22.4637
1 44.5501 44.6999 24.4749
1 43.0596 42.4477 24.5791
1 45.7924 41.0431 22.4456
1 46.9213 43.2937 22.3772
1 47.0509 44.6133 24.4969
1 45.7205 42.4572 24.4795
1 48.3043 40.9961 22.3653
1 49.4926 43.3007 22.456
1 49.5512 44.7103 24.5114
1 48.3345 42.4539 24.3831
1 34.2374 47.7439 22.2889
1 34.2898 48.9498 24.4419
1 35.6421 45.4517 22.3291
1 36.7495 47.5942 22.3214
1 36.5795 49.1428 24.4168
1 35.379 46.7003 24.4274
1 38.0556 45.3043 22.3677
1 39.2601 47.4595 22.3821
1 39.1428 49.0938 24.4791
1 37.7374 46.8804 24.5666
1 40.5628 45.3608 22.5311
1 41.8866 47.6276 22.4314
1 41.745 49.0185 24.4652
1 40.3952 46.8941 24.5718
1 43.1497 45.313 22.4732
1 44.2956 47.6093 22.4778
1 44.3016 49.12 24.5058
1 43.027 46.8458 24.5272
1 45.786 45.5516 22.4083
1 46.9261 47.7456 22.3744
1 46.8978 49.22 24.4942
1 45.6786 46.9926 24.4517
1 48.3299 45.4355 22.4148
1 49.4584 47.6989 22.2699
1 49.4815 49.2994 24.4028
1 48.2183 46.9163 24.403
1 35.4694 49.9036 22.2633
1 37.9449 49.7663 22.3816
1 40.4331 49.8574 22.4156
1 43.1207 49.808 22.4381
1 45.6664 49.8611 22.5259
1 48.2507 49.8698 22.3555
1 44.5564 36.045 28.7767
1 47.401 34.4983 26.9157
1 47.2265 35.9842 28.8308
1 49.9599 34.5691 26.6865
1 49.7196 35.8115 28.8603
1 39.3647 38.7568 26.5812
1 39.2392 40.2712 28.8001
1 41.9108 38.6142 26.6141
1 41.9705 40.3321 28.7499
1 40.6372 38.3255 28.7813
1 43.3764 36.5974 26.7725
1 44.5722 38.7792 26.7848
1 44.5426 40.3139 28.7874
1 43.1675 38.0275 28.7412
1 45.8771 36.4414 26.6366
1 47.101 38.9009 26.6631
1 47.1248 40.316 28.7975
1 45.9249 38.1799 28.759
1 48.3689 36.7514 26.6337
1 49.5668 38.9137 26.5592
1 49.7376 40.3726 28.6636
1 48.5695 38.035 28.7803
1 36.9635 43.1827 26.7033
1 36.4986 44.5992 28.7224
1 38.2114 40.9718 26.6595
1 39.3634 43.1299 26.6159
1 39.1881 44.587 28.6318
1 37.8793 42.4429 28.8361
1 40.6697 40.874 26.6254
1 41.8655 43.1073 26.6958
1 41.8248 44.6126 28.6446
1 40.5889 42.2916 28.6817
1 43.2149 40.889 26.6698
1 44.5241 43.3341 26.5874
1 44.5578 44.7551 28.6581
1 43.2472 42.5241 28.6547
1 45.8624 41.0067 26.5924
1 47.053 43.2596 26.443
1 47.0585 44.8066 28.7702
1 45.7717 42.514 28.6345
1 48.3313 41.081 26.5619
1 49.548 43.2858 26.5816
1 49.6645 44.7838 28.6355
1 48.3323 42.5881 28.7177
1 34.1547 47.7669 26.5558
1 34.2289 49.191 28.5893
1 35.5509 45.3052 26.5423
1 36.5936 47.7657 26.5239
1 36.6839 49.2967 28.6358
1 35.3231 46.8485 28.6831
1 38.0609 45.4782 26.6626
1 39.1884 47.5795 26.6148
1 39.2688 49.022 28.7308
1 37.8741 46.8942 28.658
1 40.6015 45.4336 26.6101
1 41.7947 47.6311 26.6756
1 41.8195 48.9634 28.777
1 40.4603 46.8576 28.7668
1 43.1885 45.4121 26.573
1 44.3929 47.7229 26.6462
1 44.3888 49.1547 28.7203
1 43.2056 46.8856 28.6894
1 45.6864 45.5128 26.6766
1 47.005 47.6527 26.5943
1 47.0393 49.1914 28.805
1 45.7852 46.9626 28.7954
1 48.1833 45.4396 26.5264
1 49.5335 47.7181 26.5984
1 49.4655 49.1385 28.6107
1 48.3574 46.9261 28.7367
1 35.3439 49.9944 26.4113
1 37.9434 49.875 26.6064
1 40.4972 49.7803 26.6482
1 43.0311 49.8883 26.6333
1 45.6077 49.8859 26.5366
1 48.2141 49.9856 26.6341
1 47.0382 34.4517 30.9458
1 49.488 34.5536 31.0192
1 39.4465 38.9248 30.9868
1 41.953 38.705 30.8421
1 43.5051 36.6061 30.9152
1 44.6611 38.7907 30.7427
1 46.0657 36.6603 30.8923
1 47.2058 38.8356 30.9005
1 48.548 36.6948 30.9544
1 49.6968 38.9316 30.9438
1 36.5404 43.1032 30.8027
1 38.0011 41.0121 30.7736
1 39.4524 43.099 30.807
1 40.7815 40.9836 30.8435
1 42.0394 43.2197 30.6984
1 43.2383 40.8837 30.8347
1 44.5549 43.1646 30.7224
1 45.8348 41.1296 30.8372
1 47.1554 43.269 30.7656
1 48.4015 41.1127 30.916
1 49.7321 43.2573 30.8374
1 34.3522 47.8882 30.8172
1 35.5768 45.4797 30.8272
1 36.8121 47.705 30.734
1 38.0854 45.3302 30.712
1 39.2903 47.6711 30.8057
1 40.6047 45.3348 30.7414
1 41.8619 47.5687 30.8356
1 43.2965 45.4619 30.8196
1 44.5193 47.6699 30.7537
1 45.7877 45.4149 30.8612
1 47.0339 47.6339 30.8858
1 48.4063 45.5155 30.775
1 49.553 47.6624 30.7855
1 35.4847 50.0496 30.8285
1 38.0844 49.8137 30.9253
1 40.5821 49.8591 30.8263
1 43.1184 49.9243 30.8355
1 45.6433 49.9104 30.8964
1 48.0843 49.8727 30.7277
1 44.8419 35.9723 32.9733
1 47.3259 35.7213 32.9152
1 49.8621 35.7829 32.9301
1 39.3566 40.3882 32.8919
1 42.0281 40.1921 33.0372
1 40.6827 38.3084 32.915
1 44.5163 40.3038 32.9289
1 43.2482 37.9985 32.9418
1 47.1197 40.3257 32.8485
1 45.9635 38.0774 33.0877
1 49.8185 40.411 32.9594
1 48.5754 38.0731 32.9892
1 36.6153 44.6742 32.9189
1 39.4075 44.6524 32.9443
1 38.0107 42.5929 32.9788
1 42.0075 44.7193 32.8281
1 40.9254 42.3471 32.8413
1 44.5936 44.7099 32.9267
1 43.2637 42.5304 32.7999
1 47.171 44.7782 32.8157
1 45.8661 42.4843 32.9541
1 49.7655 44.7791 32.8907
1 48.5063 42.5257 32.9922
1 34.2408 49.1565 33.0611
1 36.7288 48.9548 33.0013
1 35.3814 46.8789 32.9419
1 39.3757 49.0708 32.9091
1 38.0273 46.7431 32.8936
1 41.856 49.0428 32.8477
1 40.5929 46.918 32.8733
1 44.3955 49.0706 32.8979
1 43.1075 46.9502 32.9878
1 46.9302 49.1627 32.9761
1 45.7543 46.9476 32.9368
1 49.5703 49.2786 32.8504
1 48.385 46.9835 33.0169
1 44.8734 35.9151 37.1501
1 47.7227 34.4972 35.1444
1 47.3578 35.7319 37.2302
1 50.0916 34.4072 34.8178
1 49.8781 35.8601 37.1341
1 39.4922 38.9954 35.0429
1 39.3577 40.3963 37.0863
1 42.0444 38.5911 35.0242
1 42.0332 40.335 37.0252
1 40.5886 38.357 37.1811
1 43.65 36.6573 35.1055
1 44.5164 38.8493 34.9981
1 44.5601 40.3614 37.0947
1 43.3349 38.0415 37.1759
1 46.1828 36.4641 35.1345
1 47.0983 38.7492 35.0261
1 47.1455 40.3465 37.1249
1 45.8748 38.183 37.1036
1 48.659 36.6614 35.0993
1 49.6853 38.8781 35.0491
1 49.6858 40.2471 37.1583
1 48.3335 38.0675 37.2186
1 36.8092 43.1881 35.1139
1 36.705 44.5765 37.2334
1 38.2031 41.0863 35.014
1 39.5393 43.0307 34.9378
1 39.3226 44.5875 37.1351
1 38.0542 42.5768 37.2502
1 40.9213 40.9773 35.0561
1 42.0527 43.3522 34.9616
1 41.8663 44.6282 37.1249
1 40.6744 42.4146 37.1281
1 43.3333 41.1552 34.9953
1 44.5338 43.2451 35.0225
1 44.6353 44.6398 37.0138
1 43.2911 42.5351 37.1704
1 45.9088 40.9725 35.0388
1 47.1612 43.1229 35.0709
1 47.1556 44.7768 37.0898
1 45.8597 42.4825 37.1376
1 48.4624 40.9759 35.0449
1 49.7382 43.3422 35.0938
1 49.5753 44.774 37.0777
1 48.3763 42.5925 37.0385
1 34.3779 47.7537 35.1476
1 34.4639 49.1683 37.186
1 35.659 45.3963 35.0736
1 36.8931 47.5984 35.0766
1 36.9156 49.1516 37.1479
1 35.4586 46.8747 37.1761
1 38.1564 45.2578 35.0343
1 39.3204 47.4951 34.9854
1 39.3991 49.0132 37.0516
1 38.1082 46.8001 37.188
1 40.6742 45.3333 34.9618
1 41.8932 47.5597 35.0642
1 41.9313 49.0719 37.1034
1 40.6409 46.7579 37.1806
1 43.2637 45.4139 35.055
1 44.528 47.6782 35.0358
1 44.518 49.1652 37.1293
1 43.2966 46.9015 37.1437
1 45.828 45.3763 34.9453
1 47.1289 47.6189 35.0957
1 47.1182 49.1675 37.2237
1 45.834 46.9562 37.1278
1 48.3844 45.3729 34.9503
1 49.6108 47.7866 35.1106
1 49.6301 49.2007 37.1294
1 48.3177 46.9575 37.1759
1 35.5855 49.9252 35.1564
1 38.0831 49.9014 35.0148
1 40.6314 49.757 35.0242
1 43.2169 49.836 35.0336
1 45.8313 49.8538 35.1402
1 48.3311 49.8729 35.0264
1 44.8664 36.0161 41.2313
1 47.7102 34.4886 39.2946
1 47.4275 35.9073 41.3601
1 50.1236 34.5444 39.2422
1 49.8478 35.9008 41.4267
1 39.4118 38.9766 39.3348
1 39.3554 40.3912 41.3391
1 42.0554 38.8148 39.1892
1 42.0389 40.2849 41.418
1 40.7445 38.2965 41.2648
1 43.5405 36.6579 39.2472
1 44.7583 38.8002 39.1882
1 44.5179 40.1114 41.2728
1 43.329 37.9666 41.3097
1 46.0762 36.6605 39.2473
1 47.2479 38.8604 39.3533
1 47.1682 40.4599 41.2419
1 45.9955 38.1386 41.4383
1 48.5996 36.7345 39.2082
1 49.917 38.8606 39.2941
1 49.7435 40.3912 41.2586
1 48.4101 38.1843 41.3814
1 36.8843 43.3682 39.3516
1 36.8012 44.7657 41.4181
1 38.2171 41.1903 39.2995
1 39.5683 43.2729 39.2428
1 39.4242 44.5138 41.4538
1 38.1002 42.543 41.3596
1 40.8624 41.0316 39.1851
1 41.9979 43.2746 39.2909
1 41.9936 44.8009 41.3885
1 40.7137 42.4082 41.2904
1 43.3355 40.9217 39.2539
1 44.5204 43.2429 39.2098
1 44.4872 44.7505 41.2307
1 43.3347 42.4487 41.2873
1 45.9613 41.0717 39.272
1 47.052 43.4267 39.2343
1 47.0882 44.7494 41.3426
1 45.7606 42.5536 41.3603
1 48.4548 41.1457 39.1962
1 49.6247 43.3094 39.0663
1 49.6162 44.7142 41.3534
1 48.4488 42.5687 41.4063
1 34.3934 47.8643 39.2959
1 34.4625 49.1204 41.497
1 35.4773 45.4818 39.3799
1 36.9355 47.6308 39.2605
1 36.8314 49.0308 41.3298
1 35.4102 46.7816 41.3963
1 38.1796 45.3346 39.253
1 39.3908 47.7235 39.2292
1 39.3303 49.1731 41.4647
1 38.0362 46.8797 41.4208
1 40.7034 45.4941 39.3277
1 42.0004 47.6971 39.2984
1 42.0081 49.2366 41.4235
1 40.5688 46.9518 41.341
1 43.2158 45.324 39.1624
1 44.5373 47.6932 39.3437
1 44.5018 49.1876 41.3193
1 43.2192 47.0313 41.3317
1 45.812 45.4495 39.1792
1 47.0596 47.6815 39.3217
1 47.1049 49.162 41.3462
1 44.5438 47.6763 43.4759
1 50.9389 45.4728 39.2348
1 49.5263 47.574 39.2176
1 49.5359 49.0494 41.2943
1 45.9177 46.9873 41.4068
1 35.6366 50.0135 39.3766
1 38.1426 49.7815 39.2769
1 40.7396 49.8072 39.3187
1 43.2498 49.7671 39.1934
1 45.7392 49.971 39.2111
1 48.3233 49.9122 39.1428
1 47.6355 34.6693 43.4441
1 50.0439 34.6941 43.4715
1 39.5779 38.9508 43.3731
1 41.9747 38.5902 43.4994
1 43.4466 36.5514 43.3895
1 44.537 38.7233 43.5249
1 46.0113 36.5784 43.5195
1 47.1456 38.9195 43.5782
1 48.5459 36.9166 43.4939
1 49.8301 38.9683 43.4047
1 36.8998 43.3035 43.4751
1 38.1651 41.1393 43.4863
1 39.5749 43.0147 43.543
1 40.8641 40.9074 43.5556
1 42.0241 43.1492 43.4161
1 43.4299 41.0073 43.5695
1 44.5684 43.2915 43.4176
1 45.8658 41.0943 43.4288
1 47.1328 43.2387 43.4359
1 48.5315 41.0683 43.3553
1 49.7671 43.324 43.3671
1 34.5395 47.7037 43.5682
1 35.5771 45.4426 43.5517
1 37.0092 47.6862 43.4919
1 38.2241 45.3777 43.5626
1 39.4016 47.663 43.5417
1 40.7092 45.4117 43.5227
1 41.984 47.6731 43.4404
1 43.2962 45.4819 43.3671
1 45.7985 47.0064 45.5415
1 45.7154 45.4986 43.4825
1 47.1345 47.7049 43.4842
1 48.3884 45.4873 43.5018
1 49.5284 47.6252 43.2861
1 35.6872 50.0402 43.5061
1 38.1513 49.9232 43.5205
1 40.5831 49.9752 43.4609
1 43.1732 49.8783 43.4212
1 45.7102 49.914 43.4711
1 48.2579 49.9709 43.407
1 44.7595 35.8307 45.5679
1 47.3014 35.8158 45.6343
1 49.7585 36.0384 45.5492
1 39.48 40.3285 45.5935
1 42.1657 40.1651 45.5414
1 40.8049 38.2535 45.5506
1 44.7898 40.2057 45.5347
1 43.3546 37.9442 45.6385
1 47.2607 40.3926 45.6534
1 45.9524 38.0347 45.5589
1 49.7905 40.301 45.5161
1 48.5899 38.169 45.5098
1 37.0147 44.7913 45.6002
1 39.5069 44.6236 45.5782
1 38.0791 42.5038 45.513
1 42.0559 44.6893 45.4456
1 40.8666 42.388 45.6006
1 44.543 44.7175 45.5306
1 43.3593 42.5435 45.4538
1 47.139 44.8113 45.5657
1 45.8644 42.5602 45.4805
1 49.7428 44.7874 45.5315
1 48.4298 42.6284 45.4918
1 34.5109 49.0628 45.681
1 36.8765 49.237 45.6678
1 35.6089 46.9021 45.6278
1 39.3755 49.1387 45.6362
1 38.1613 47.0095 45.5878
1 42.0297 49.0886 45.6058
1 40.7395 46.8966 45.4982
1 44.4621 49.2002 45.5453
1 43.2942 46.9525 45.5045
1 48.2657 51.3581 45.4385
1 46.972 49.2208 45.5405
1 49.6781 49.2558 45.461
1 48.3761 47.0133 45.5976
1 44.7572 35.9332 49.73
1 47.7277 34.5606 47.6327
1 47.3069 35.8144 49.8486
1 50.1828 34.5192 47.5518
1 49.7751 35.8963 49.5983
1 39.6562 38.9792 47.6159
1 39.4405 40.4103 49.6455
1 42.0934 38.6467 47.7282
1 42.1896 40.3595 49.7144
1 40.6879 38.2674 49.7294
1 43.4285 36.4006 47.7118
1 44.7108 38.8274 47.7313
1 44.657 40.3111 49.737
1 43.343 37.9198 49.8043
1 45.936 36.551 47.6863
1 47.1641 38.8361 47.5746
1 47.2624 40.4004 49.6697
1 45.9619 38.2652 49.7484
1 48.566 36.8021 47.679
1 49.9072 38.9019 47.5576
1 49.8633 40.2654 49.7869
1 48.4748 38.1541 49.7787
1 36.9317 43.3933 47.6431
1 36.8923 44.7417 49.7825
1 38.2834 41.2167 47.5793
1 39.5684 43.2111 47.59
1 39.5067 44.7445 49.751
1 38.0432 42.5804 49.7348
1 40.9512 41.0122 47.7119
1 42.1107 43.2592 47.6058
1 42.1824 44.8165 49.8434
1 40.8693 42.526 49.6532
1 43.4531 41.0378 47.55
1 44.6436 43.2835 47.5768
1 44.6532 44.6538 49.7742
1 43.3504 42.6088 49.7692
1 45.8872 41.0617 47.6087
1 47.1623 43.2965 47.6806
1 47.1583 44.8519 49.7688
1 45.9328 42.5806 49.7605
1 48.6109 41.1337 47.6825
1 49.7332 43.3511 47.6674
1 49.7816 44.6692 49.7366
1 48.474 42.5857 49.6614
1 34.4942 47.6542 47.7658
1 34.6115 49.2552 49.9516
1 35.5284 45.4867 47.7308
1 36.9448 47.7809 47.6059
1 37.04 49.2829 49.8183
1 35.6728 46.9136 49.8466
1 38.2959 45.5561 47.6879
1 39.554 47.8052 47.7295
1 39.5146 49.204 49.8004
1 38.2113 46.9424 49.7743
1 40.8829 45.5269 47.6811
1 42.1011 47.6824 47.5919
1 42.0284 49.1445 49.7581
1 40.7451 46.9725 49.7285
1 43.3757 45.4452 47.5503
1 44.7032 47.7584 47.6016
1 44.5486 49.2312 49.7623
1 43.4185 46.9652 49.6322
1 45.8967 45.4359 47.6813
1 47.1206 47.7923 47.6641
1 47.1434 49.2605 49.6867
1 45.9258 46.9928 49.6362
1 48.3789 45.4695 47.6774
1 49.6549 47.7751 47.6072
1 50.9752 50.131 51.6145
1 48.4956 46.9839 49.7175
1 35.6329 49.9733 47.7988
1 38.2026 49.9476 47.6946
1 40.7624 49.938 47.6106
1 43.287 49.951 47.6634
1 45.8567 50.0008 47.5985
1 49.6462 49.2666 49.6676
1 44.7382 35.7933 53.9936
1 48.6676 34.3508 51.344
1 47.2913 35.7915 54.0208
1 51.0828 34.2511 51.1095
1 49.9276 35.9774 53.8395
1 39.6479 39.0719 51.7787
1 39.365 40.3386 53.9126
1 42.1468 38.8642 51.8048
1 41.8828 40.3857 53.9445
1 40.6866 38.1203 53.7195
1 43.6374 36.6197 51.9341
1 44.6399 38.9369 51.763
1 43.3084 38.2681 53.8788
1 42.1663 36.1069 53.8397
1 45.9764 36.5813 51.8934
1 47.1493 38.9763 51.8405
1 47.1952 40.317 53.9303
1 45.8383 38.0869 53.8489
1 48.5241 36.677 51.8368
1 49.8372 38.8622 51.6939
1 49.7089 40.3985 53.8419
1 48.5485 38.1832 53.8309
1 37.133 43.4678 51.8399
1 36.9024 44.6306 54.0254
1 38.3188 41.1195 51.7422
1 39.5475 43.2856 51.7569
1 39.511 44.8586 53.8993
1 38.2503 42.5386 54.0128
1 40.8857 41.1513 51.8413
1 42.0583 43.3532 51.8168
1 42.1058 44.8817 53.9712
1 40.655 42.5592 53.9495
1 43.3351 41.0699 51.8314
1 44.5223 43.268 51.8281
1 44.5732 44.7961 53.8033
1 43.292 42.6695 53.8732
1 45.8607 41.0727 51.8463
1 47.1124 43.2574 51.8272
1 45.8408 42.5424 53.8965
1 44.528 40.2962 53.9861
1 48.4915 40.9804 51.7782
1 49.665 43.2721 51.8014
1 49.7986 44.8132 53.8798
1 48.5175 42.4833 53.934
1 34.4848 47.7163 51.8695
1 34.5065 49.1578 53.8473
1 35.8508 45.5854 51.9299
1 37.0705 47.8719 51.9758
1 36.9669 49.2516 54.0561
1 35.7344 46.8536 54.0245
1 38.362 45.7209 51.8989
1 39.5127 47.8319 51.8681
1 39.5082 49.2596 53.9331
1 38.1348 47.0362 53.9703
1 40.857 45.5409 51.8308
1 42.0032 47.8256 51.7767
1 42.0051 49.2639 53.942
1 40.7561 47.0276 53.8613
1 43.3191 45.6815 51.7764
1 44.6248 47.9329 51.6676
1 44.5708 49.2864 53.8117
1 43.3653 47.0677 53.8178
1 45.8558 45.6025 51.7576
1 47.1547 47.8038 51.7023
1 47.1274 49.2928 53.9581
1 45.8685 47.0793 53.7575
1 48.4479 45.5336 51.7009
1 49.7651 47.7889 51.6916
1 48.495 47.0345 53.8422
1 47.1779 44.7923 53.8018
1 35.655 50.0255 51.9216
1 38.2081 50.0311 51.849
1 40.8318 50.1328 51.8157
1 43.2575 50.0443 51.7771
1 45.8401 50.0985 51.7495
1 48.3476 50.0315 51.8493
1 44.8753 36.0394 58.0492
1 48.6406 33.8686 53.7821
1 47.2635 35.8167 58.118
1 49.9126 34.5052 55.9162
1 49.7151 35.7826 58.0381
1 39.8036 38.8551 55.9369
1 39.6698 40.3849 58.159
1 42.2733 39.0183 55.9725
1 42.3167 40.3559 58.2483
1 40.8163 38.1193 58.1715
1 41.226 36.9268 55.8836
1 43.585 36.5563 55.9519
1 44.7632 40.2688 58.2429
1 43.4575 38.0139 58.1016
1 46.0113 36.551 55.9601
1 47.1994 38.821 55.9798
1 47.3433 40.3872 58.0221
1 46.1275 38.1308 58.1405
1 48.5169 36.637 55.9918
1 49.7496 38.8847 55.9196
1 49.8442 40.3139 58.0122
1 48.5447 38.2097 58.0535
1 36.8991 43.1759 56.1312
1 37.0155 44.7199 58.1722
1 38.3694 40.9798 56.0425
1 39.6482 43.3345 56.1133
1 39.6103 44.8579 58.2059
1 38.2592 42.521 58.0082
1 40.8873 41.1866 56.1276
1 42.228 43.4371 56.0345
1 42.2725 44.6948 58.097
1 40.8177 42.621 58.2132
1 43.4576 41.2075 56.0431
1 44.7242 43.421 56.0223
1 44.8019 44.8776 58.0234
1 43.4848 42.5176 58.084
1 44.8074 38.8601 56.0701
1 45.9622 41.1823 55.9315
1 47.2633 44.8043 58.0052
1 45.9754 42.5542 57.9849
1 48.5215 41.1781 55.9888
1 49.7367 43.3638 56.0339
1 49.8089 44.85 58.0232
1 48.5328 42.5946 58.068
1 34.5605 47.9671 56.1178
1 34.5847 49.1894 58.2025
1 35.9293 45.6267 56.177
1 37.0268 47.8153 56.1398
1 37.1227 49.2289 58.1644
1 35.8634 47.0323 58.231
1 38.3379 45.5391 55.974
1 39.62 47.7007 55.9255
1 39.4754 49.2679 57.9952
1 38.414 47.0081 58.0783
1 40.8756 45.5097 56.0377
1 42.0169 47.8079 55.9001
1 42.2268 49.2724 58.0776
1 40.9592 47.0419 58.1541
1 43.452 45.6247 55.8775
1 44.7156 47.7983 55.912
1 44.6851 49.2769 58.0275
1 43.5834 47.104 58.0772
1 46.0471 45.5343 55.9064
1 47.3582 47.7514 55.9057
1 47.2636 49.3365 58.1217
1 46.0237 47.0428 57.9388
1 47.249 43.3144 55.9167
1 48.5293 45.5282 55.9796
1 49.8212 49.3005 58.0756
1 48.5945 47.0633 57.9882
1 35.5266 50.1269 56.0183
1 38.1843 50.035 56.0339
1 40.8447 50.0491 55.9654
1 43.4165 50.0729 55.9537
1 45.9534 50.003 55.9652
1 48.5273 50.0074 55.96
1 44.8692 36.2195 62.3628
1 47.4153 34.6672 60.1671
1 47.2706 35.876 62.3928
1 49.7877 34.4559 60.1755
1 49.8301 35.8624 62.234
1 39.7449 39.0497 60.2787
1 39.5626 40.4262 62.358
1 42.2229 38.8238 60.1886
1 42.2852 40.4503 62.2874
1 40.9121 38.3968 62.3639
1 43.6635 36.678 60.1731
1 44.7047 38.9285 60.2463
1 44.7676 40.4598 62.2941
1 43.5003 38.2083 62.3188
1 45.9816 36.6754 60.2573
1 47.1957 39.0105 60.1502
1 47.3819 40.4597 62.2138
1 46.109 38.2864 62.3379
1 48.6072 36.8439 60.2501
1 49.8329 39.0884 60.1072
1 49.8637 40.2958 62.2486
1 48.6592 38.1515 62.2317
1 37.3683 43.4518 60.1327
1 37.2102 44.8107 62.3191
1 38.6799 41.1736 60.1902
1 39.7598 43.4216 60.2981
1 39.6131 44.9091 62.2782
1 38.4711 42.591 62.3848
1 41.0938 41.1673 60.2385
1 42.2104 43.4196 60.129
1 42.1941 44.9098 62.3067
1 40.9279 42.576 62.3234
1 43.5817 41.3067 60.2088
1 44.7471 43.4545 60.1018
1 44.7043 44.9301 62.1874
1 43.4915 42.7192 62.2383
1 46.0982 41.1219 60.2398
1 47.2582 43.4288 60.1032
1 47.3679 44.8515 62.2671
1 45.9583 42.6568 62.2524
1 48.5637 41.1842 60.1295
1 49.8065 43.343 60.2624
1 49.897 44.8791 62.2874
1 48.596 42.6367 62.2659
1 34.7731 47.7883 60.2677
1 34.6442 49.1807 62.3315
1 35.986 45.6209 60.378
1 37.23 48.0436 60.2739
1 37.0791 49.4173 62.3535
1 35.9911 46.945 62.3654
1 38.3751 45.712 60.2724
1 39.6704 47.9067 60.1274
1 39.621 49.3762 62.1945
1 38.3052 47.1614 62.3818
1 40.8418 45.6891 60.241
1 42.2703 47.8204 60.1878
1 42.2063 49.2784 62.2707
1 40.8461 47.2128 62.2086
1 43.4213 45.6003 60.175
1 44.8104 47.7468 60.173
1 44.7635 49.3606 62.3767
1 43.435 47.0647 62.3714
1 46.0517 45.6854 60.2051
1 47.3831 47.8198 60.1075
1 47.363 49.325 62.3113
1 46.0052 47.0474 62.2461
1 48.5397 45.6312 60.2105
1 49.8766 47.7761 60.1913
1 49.86 49.4099 62.2826
1 48.5823 47.1971 62.2221
1 36.0505 50.1896 60.1454
1 38.4937 50.1235 60.2186
1 40.983 50.0918 60.1187
1 43.4789 50.0951 60.1761
1 46.0021 50.0123 60.1393
1 48.5679 49.9541 60.1477
1 44.8534 36.025 66.4942
1 47.2729 34.4285 64.3912
1 47.3718 35.7898 66.4404
1 49.6625 34.5584 64.3538
1 49.9876 35.9626 66.479
1 39.7077 38.8113 64.504
1 39.7159 40.3265 66.5728
1 42.2824 38.938 64.3627
1 42.1579 40.4282 66.4282
1 40.9085 38.1769 66.5611
1 43.6318 36.8433 64.4665
1 44.776 38.9426 64.3425
1 44.8199 40.3899 66.4632
1 43.4342 38.166 66.5474
1 46.1673 36.7193 64.4662
1 47.3291 38.8349 64.404
1 47.4985 40.4221 66.4814
1 46.1368 38.2209 66.4148
1 48.6217 36.7843 64.4294
1 49.8609 38.9042 64.4
1 49.9957 40.3811 66.4645
1 48.5875 38.0919 66.555
1 37.2018 43.2394 64.428
1 37.152 44.6481 66.4223
1 38.5091 40.9861 64.4695
1 39.6478 43.4955 64.3394
1 39.6573 44.9675 66.4431
1 38.4202 42.4943 66.5882
1 40.9937 41.1688 64.3633
1 42.2679 43.4157 64.3493
1 42.2611 44.7327 66.4792
1 40.963 42.7348 66.3833
1 43.5474 41.1936 64.289
1 44.8358 43.3349 64.2919
1 44.8214 44.762 66.4074
1 43.5531 42.523 66.4923
1 46.2002 41.2111 64.2904
1 47.4317 43.4463 64.2605
1 47.4199 44.8457 66.4801
1 46.1259 42.5894 66.3529
1 48.6327 41.0899 64.3778
1 49.9903 43.3426 64.3239
1 49.9935 44.8834 66.3512
1 48.7586 42.6214 66.3649
1 34.7795 47.7726 64.4051
1 34.8877 49.049 66.4201
1 35.9787 45.3672 64.3603
1 37.1576 47.9295 64.4159
1 37.3248 49.3579 66.4458
1 36.0302 46.9355 66.4689
1 38.3723 45.7122 64.3891
1 39.7091 47.9413 64.4011
1 39.7488 49.205 66.5003
1 38.4336 47.1133 66.4728
1 40.834 45.658 64.3496
1 42.3054 47.7582 64.4816
1 42.2356 49.2166 66.6452
1 41.0673 47.0172 66.5133
1 43.5123 45.6098 64.4291
1 44.7199 47.7523 64.4447
1 44.7468 49.2446 66.3759
1 43.4857 47.0258 66.5551
1 46.0775 45.5556 64.3361
1 47.2588 47.7329 64.3079
1 47.319 49.2592 66.4653
1 46.1105 47.0427 66.504
1 48.6668 45.6274 64.3789
1 49.909 47.8464 64.351
1 50.0244 49.239 66.4645
1 48.6691 47.084 66.3856
1 35.9661 50.1063 64.4933
1 38.4353 50.0631 64.4297
1 40.9708 50.0422 64.4071
1 43.4492 49.935 64.4246
1 46.0733 49.9411 64.4015
1 48.5701 49.96 64.3989
1 44.8581 36.096 70.6755
1 47.4722 34.4639 68.6835
1 47.5431 35.9669 70.6666
1 49.9512 34.45 68.6543
1 49.9426 35.8065 70.5861
1 39.7923 38.7165 68.7534
1 39.8292 40.3146 70.6587
1 42.2248 38.8224 68.6678
1 42.3224 40.4703 70.7359
1 41.1106 38.1818 70.798
1 43.7392 36.6753 68.6714
1 44.7864 38.8542 68.64
1 44.8912 40.3799 70.6873
1 43.5846 38.3074 70.7695
1 46.2608 36.6927 68.4527
1 47.376 38.9409 68.5707
1 47.3582 40.3632 70.6341
1 46.1046 38.2469 70.6952
1 48.7126 36.675 68.6412
1 49.9164 38.8948 68.5126
1 50.0376 40.3525 70.716
1 48.6145 38.23 70.6215
1 37.3565 43.2599 68.5978
1 37.2001 44.635 70.691
1 38.5597 40.9911 68.6734
1 39.8772 43.45 68.5601
1 39.6458 44.8911 70.6394
1 38.5719 42.4254 70.5539
1 41.0524 41.2599 68.653
1 42.3575 43.3904 68.6246
1 42.3525 44.8863 70.7261
1 41.0551 42.644 70.7636
1 43.5539 41.1077 68.609
1 44.8154 43.3408 68.5568
1 44.8999 44.9005 70.6447
1 43.5335 42.6418 70.7748
1 46.054 41.0858 68.5724
1 47.4032 43.2995 68.5143
1 47.3918 44.7581 70.6078
1 46.1944 42.6026 70.7186
1 48.6638 41.053 68.5535
1 49.9405 43.4088 68.4891
1 49.9673 44.7458 70.6761
1 48.7101 42.4734 70.5477
1 34.7449 47.6822 68.582
1 34.8294 49.0738 70.6206
1 35.9097 45.402 68.5087
1 37.1921 47.789 68.474
1 37.2908 49.2274 70.5982
1 36.0623 46.8275 70.5584
1 38.3097 45.5897 68.4691
1 39.7233 47.8195 68.5241
1 39.8388 49.2453 70.6332
1 38.496 47.0472 70.598
1 40.9607 45.6093 68.5514
1 42.3538 47.7281 68.6446
1 42.355 49.1875 70.6924
1 40.9961 47.0614 70.6561
1 43.6378 45.5529 68.6221
1 44.8349 47.9003 68.6314
1 44.8098 49.2641 70.6615
1 43.6837 47.0547 70.7596
1 46.1671 45.5635 68.5307
1 47.3863 47.7877 68.4445
1 47.3914 49.3596 70.604
1 46.1567 47.078 70.6172
1 48.7507 45.6133 68.4652
1 50.0055 47.785 68.5061
1 49.9475 49.2328 70.6298
1 48.5948 47.0556 70.6018
1 35.7927 50.0039 68.4771
1 38.2954 50.0209 68.5472
1 40.9029 50.0446 68.5895
1 43.561 50.0077 68.6398
1 46.1237 50.0708 68.5707
1 48.7297 50.0405 68.6398
1 44.902 35.9841 74.8777
1 47.6645 34.6336 72.7205
1 47.514 35.9099 74.8993
1 50.2123 34.5094 72.6791
1 49.9345 35.7841 74.7632
1 39.8929 38.8363 72.9087
1 39.7102 40.3778 74.9874
1 42.3495 38.8958 72.8244
1 42.2765 40.3791 74.9564
1 41.1237 38.2523 75.0518
1 43.7877 36.7695 72.8128
1 44.8988 38.9758 72.8435
1 44.8706 40.4051 74.8769
1 43.5848 38.0826 74.98
1 46.2258 36.6724 72.847
1 47.5317 38.9316 72.7455
1 47.3731 40.5154 74.8379
1 46.1815 38.1854 74.7825
1 48.859 36.7382 72.7634
1 50.0417 38.9246 72.7455
1 49.971 40.2727 74.6953
1 48.6001 38.0722 74.9337
1 37.3438 43.1889 72.5849
1 37.1164 44.589 74.793
1 38.5107 41.054 72.6947
1 39.6141 43.4831 72.7438