5538
Atoms. Timestep: 50000
1 46.7763 40.7781 8.731
1 47.3821 38.3723 8.90908
1 46.2143 37.0185 10.7222
1 48.9064 37.1701 7.53528
1 48.3978 36.325 9.92445
1 41.9448 39.9118 8.97015
1 40.0357 41.4831 9.33988
1 42.9622 39.4637 11.1215
1 42.5038 42.2184 9.17397
1 44.197 40.4333 8.21068
1 45.0421 42.6885 8.80617
1 41.6736 40.8371 12.6155
1 45.9211 39.8034 11.9414
1 47.314 42.8646 9.98359
1 45.0777 39.0277 9.89185
1 47.836 39.8445 10.7281
1 47.044 40.5803 13.9442
1 44.5163 37.873 12.1696
1 45.6419 35.6463 12.8216
1 49.6788 36.9712 13.4881
1 47.4903 38.0784 12.4754
1 47.9774 35.7786 12.2024
1 39.367 46.0146 9.78095
1 36.5023 44.2349 10.061
1 37.9908 42.6072 8.98244
1 39.5557 41.7178 11.7097
1 40.2336 44.6638 12.3115
1 38.6775 43.8914 10.8456
1 40.5076 39.6609 10.9186
1 41.5622 42.8643 11.4714
1 41.684 45.6358 10.4196
1 40.5067 43.7518 9.34382
1 44.3381 41.4289 10.7545
1 46.9499 43.8072 14.3214
1 43.6029 43.8976 10.5436
1 43.7481 42.3909 12.7395
1 45.2881 41.998 14.6547
1 47.6924 44.3434 11.9272
1 45.945 44.8326 10.0249
1 46.2235 42.2381 12.2598
1 49.1023 39.9555 12.8154
1 50.0428 44.033 11.5761
1 48.175 45.9741 9.8183
1 48.6746 42.0631 11.7852
1 37.7624 47.9834 10.2289
1 38.6635 50.1874 10.0651
1 38.9315 44.5903 7.78203
1 35.7276 46.4937 10.8152
1 34.9202 45.9303 13.0713
1 37.1842 46.0138 8.86263
1 37.1066 45.1551 12.2771
1 40.2347 48.3723 10.4743
1 38.6429 49.4233 12.3335
1 38.9077 46.8653 12.1039
1 41.0532 45.7063 14.3376
1 42.798 48.7419 11.6832
1 42.2593 52.3899 11.9722
1 41.3294 47.0737 12.3341
1 42.8406 44.9543 12.4961
1 44.3522 47.7534 8.01276
1 44.3538 49.3006 9.92801
1 42.3616 47.8329 9.48095
1 44.0481 46.2322 9.9327
1 45.2939 44.3408 12.38
1 45.9847 48.9483 11.607
1 46.0885 47.3814 9.76116
1 49.2237 44.6758 13.979
1 49.3827 46.2908 11.9749
1 49.4778 49.0575 14.151
1 46.7106 46.5431 12.0001
1 36.2632 48.5842 12.0708
1 35.687 50.319 13.6576
1 40.9784 50.2446 12.0209
1 43.7072 51.69 10.1162
1 44.3605 46.9082 12.1156
1 48.3855 48.381 12.2446
1 41.5719 34.7717 18.0201
1 46.9115 32.6188 17.5297
1 44.9728 34.0887 17.3669
1 49.1735 33.3023 16.893
1 49.2144 35.2422 15.3642
1 40.0864 36.7178 17.6331
1 39.5477 39.0308 17.3635
1 41.4537 37.0402 15.6196
1 40.4406 39.1968 15.1172
1 42.2318 35.7786 20.3481
1 43.1953 35.5069 16.4124
1 42.3286 38.5037 13.5804
1 44.1234 40.1357 13.5005
1 43.4587 36.3724 13.9584
1 43.4366 33.8686 19.2038
1 45.986 37.2931 16.5648
1 45.7465 38.4933 14.2543
1 45.237 35.2829 15.1503
1 47.1542 35.0467 16.758
1 48.4636 37.154 16.7956
1 48.4328 38.5487 14.7562
1 47.3394 36.4916 14.5063
1 35.0554 43.5005 16.5239
1 38.3972 43.1628 13.4001
1 37.0778 39.0021 17.6113
1 38.4331 42.4946 15.8964
1 38.71 45.4389 14.2485
1 36.313 41.3342 16.5847
1 38.1817 40.0105 15.5608
1 40.8549 42.3922 16.2457
1 41.7628 43.2 14.1166
1 39.825 41.353 14.1601
1 42.1222 39.2931 16.9886
1 43.3573 42.6374 16.2089
1 43.9398 44.3318 14.5463
1 42.2431 40.6891 14.9681
1 43.8552 37.9527 15.6771
1 47.1621 41.9375 16.1375
1 45.5321 43.8734 16.3437
1 44.402 40.3182 16.0217
1 46.671 39.6053 16.1054
1 48.5526 43.7982 16.2666
1 51.5409 44.3038 13.421
1 48.9423 42.0892 14.27
1 34.0668 45.1935 15.1381
1 33.5149 47.483 15.9169
1 35.9455 43.8883 14.1264
1 35.7904 46.544 15.9401
1 35.4805 49.1394 15.8962
1 34.5567 48.1183 13.9085
1 37.2372 44.5162 16.0334
1 38.2124 47.0033 15.9868
1 37.6403 49.212 14.5594
1 36.8292 47.0909 13.8553
1 39.7307 44.5391 16.2351
1 40.6931 46.919 16.3378
1 41.9565 48.8311 14.0057
1 39.7857 47.8296 14.109
1 42.1361 44.7597 16.2425
1 42.7426 48.0893 16.211
1 44.4167 48.6777 13.7598
1 43.1909 46.7303 14.1918
1 44.2524 46.152 16.3195
1 46.0238 47.7109 15.6122
1 46.8899 49.2589 13.9842
1 45.6433 45.9413 14.1712
1 47.109 45.6667 16.1852
1 49.5295 46.2632 16.1202
1 48.2294 48.456 16.1159
1 48.1145 46.8657 14.165
1 33.5459 49.8892 17.0552
1 37.3197 50.6765 16.3954
1 39.3902 49.1749 16.3229
1 41.5776 50.1973 16.171
1 44.672 49.4036 16.2725
1 46.8151 50.585 16.1992
1 44.7336 35.4928 20.6163
1 45.954 33.6216 19.538
1 47.1987 35.1048 20.9905
1 48.3244 34.2574 18.8309
1 49.7236 34.9907 20.7534
1 38.4859 37.9148 19.2473
1 39.3477 40.2114 20.2008
1 41.0575 38.5518 19.1992
1 42.038 40.2287 20.3064
1 40.3884 37.3292 20.907
1 42.4245 37.0387 18.1122
1 44.369 38.7253 18.0967
1 44.5666 40.207 20.1905
1 43.2036 38.0385 20.3133
1 44.7603 36.3369 18.4507
1 47.0027 38.7478 18.2819
1 47.018 40.3054 20.3253
1 45.7276 37.9043 20.2732
1 47.1471 36.3177 18.7682
1 49.4437 38.9111 18.2571
1 49.6137 40.3756 20.5041
1 48.3632 38.0232 20.2634
1 36.9231 43.3292 18.215
1 36.6661 44.6173 20.2615
1 38.2105 41.117 18.2188
1 39.375 43.1945 18.2842
1 39.199 44.5962 20.3793
1 38.073 42.4157 20.3754
1 40.794 40.956 18.1744
1 41.8857 43.1762 18.2803
1 41.8212 44.6518 20.5003
1 40.6163 42.413 20.4196
1 43.2736 41.0758 18.2706
1 44.4482 43.1922 18.4357
1 44.4186 44.6956 20.55
1 43.1166 42.4723 20.4448
1 45.8237 41.0062 18.0696
1 46.9771 43.2812 18.3165
1 46.9831 44.739 20.3458
1 45.7643 42.4393 20.389
1 48.2535 41.1144 18.324
1 49.5124 43.1996 18.3499
1 49.4385 44.7025 20.3848
1 48.2163 42.5616 20.421
1 34.2771 47.7259 18.1878
1 34.3935 49.2034 20.2525
1 35.4883 45.4594 18.1357
1 36.7851 47.7366 17.9612
1 36.7855 49.0562 20.3341
1 35.4073 46.9299 20.2117
1 38.1034 45.5112 18.1251
1 39.2563 47.6477 18.2771
1 39.2548 49.1472 20.5304
1 37.8734 46.9033 20.3173
1 40.6012 45.3599 18.3572
1 41.8821 47.6071 18.4785
1 41.798 49.1194 20.5341
1 40.3389 46.8221 20.4485
1 43.1607 45.438 18.4589
1 44.38 47.6627 18.1893
1 44.3304 49.0621 20.3603
1 43.1131 46.9777 20.5253
1 45.6209 45.4097 18.2559
1 46.828 47.6131 18.0691
1 46.9574 49.1054 20.3659
1 45.5975 46.918 20.3431
1 48.26 45.4432 18.2625
1 49.419 47.6933 18.105
1 49.4907 49.1965 20.3232
1 48.1963 47.0289 20.2703
1 35.6853 50.0464 18.3319
1 38.1439 49.9436 18.4054
1 40.5814 49.7553 18.4162
1 43.0298 49.8607 18.2114
1 45.6702 49.8279 18.366
1 48.1583 49.8616 18.2233
1 44.6741 36.0075 24.5563
1 48.4375 34.3282 23.0136
1 47.0831 35.7746 24.5972
1 50.9542 34.3133 22.8945
1 49.7094 35.7467 24.5352
1 39.4075 38.8872 22.4052
1 39.2004 40.2591 24.6303
1 41.896 38.5394 22.3592
1 41.8622 40.1972 24.4429
1 40.5268 38.1753 24.5663
1 43.4469 36.5441 22.3852
1 44.5676 38.8236 22.3923
1 44.4165 40.273 24.5915
1 43.1793 38.0064 24.4648
1 45.9853 36.6612 22.412
1 47.0638 38.8459 22.3765
1 47.1011 40.2175 24.4863
1 45.8108 38.1186 24.5538
1 48.4402 36.6537 22.4044
1 49.5733 38.7901 22.5096
1 49.628 40.2556 24.5923
1 48.3071 37.9068 24.5723
1 37.0063 43.3806 22.3751
1 36.4901 44.6075 24.6306
1 38.3162 41.1003 22.4566
1 39.4724 43.2112 22.5554
1 39.1032 44.6071 24.5712
1 37.8083 42.416 24.5893
1 40.7655 40.9053 22.4755
1 41.9384 43.1661 22.5335
1 41.7839 44.6423 24.7005
1 40.4139 42.3721 24.6816
1 43.2488 40.9254 22.3638
1 44.4354 43.2231 22.5718
1 44.4233 44.6592 24.6884
1 43.0745 42.3657 24.6632
1 45.7714 41.0819 22.4381
1 47.0419 43.3147 22.4326
1 47.0705 44.6329 24.5451
1 45.7188 42.4001 24.5892
1 48.3098 41.0635 22.498
1 49.6235 43.3102 22.3369
1 49.538 44.6597 24.4731
1 48.3188 42.4844 24.6088
1 34.3042 47.9172 22.3601
1 34.4254 49.1793 24.5353
1 35.6025 45.6164 22.3702
1 36.8088 47.6958 22.4446
1 36.7892 49.0181 24.5505
1 35.3573 46.8319 24.508
1 38.1504 45.5183 22.4432
1 39.2855 47.5895 22.4557
1 39.2982 49.1119 24.5533
1 37.87 46.7643 24.5663
1 40.6698 45.4494 22.5554
1 41.8217 47.6718 22.5094
1 41.8687 49.0949 24.6095
1 40.5614 46.8157 24.6383
1 43.1108 45.4455 22.5539
1 44.4786 47.5953 22.6168
1 44.3649 48.9502 24.5835
1 43.0229 46.7893 24.5837
1 45.6831 45.4717 22.5159
1 46.8905 47.615 22.4652
1 46.9859 49.1709 24.5732
1 45.6859 46.7722 24.6645
1 48.3432 45.4826 22.3952
1 49.539 47.6974 22.3382
1 49.4891 49.1279 24.5474
1 48.2238 46.9172 24.4977
1 35.5566 50.0419 22.4339
1 37.991 49.9564 22.4176
1 40.5311 49.8878 22.5586
1 43.1404 49.7918 22.6082
1 45.6314 49.7695 22.418
1 48.2228 49.8185 22.4681
1 44.6943 36.0412 28.6871
1 47.0419 34.3547 26.5619
1 47.3551 35.6711 28.7814
1 49.4644 34.4393 26.6078
1 49.7869 35.8316 28.7237
1 39.4801 38.8707 26.813
1 39.3103 40.1838 28.7668
1 41.9477 38.6948 26.6337
1 41.8575 40.2288 28.8554
1 40.6895 38.14 28.8328
1 43.4255 36.6601 26.5904
1 44.5552 38.721 26.6167
1 44.4631 40.1391 28.7697
1 43.2324 38.0035 28.7491
1 45.9227 36.6081 26.6769
1 47.0154 38.845 26.6603
1 47.1073 40.3539 28.9101
1 45.8418 38.0485 28.7659
1 48.4808 36.6392 26.6901
1 49.6288 38.9293 26.597
1 49.8008 40.3544 28.73
1 48.3215 38.1683 28.6189
1 37.0114 43.3865 26.7703
1 36.7235 44.628 28.8185
1 38.3327 41.2281 26.6849
1 39.574 43.253 26.7562
1 39.2835 44.5941 28.8159
1 38.0079 42.4115 28.8614
1 40.8259 40.9965 26.6624
1 41.979 43.2011 26.6659
1 41.7902 44.628 28.776
1 40.5878 42.3082 28.794
1 43.2712 40.9101 26.7324
1 44.4362 43.164 26.7825
1 44.3986 44.6841 28.7956
1 43.1009 42.4467 28.6972
1 45.7366 41.0033 26.6816
1 47.0032 43.1723 26.7451
1 47.0082 44.6324 28.7965
1 45.6803 42.4774 28.8621
1 48.3223 41.0835 26.7509
1 49.6331 43.2455 26.6627
1 49.544 44.8014 28.7394
1 48.3023 42.4723 28.7271
1 34.417 47.7948 26.6876
1 34.5034 49.0821 28.8455
1 35.7491 45.6281 26.7224
1 36.91 47.7071 26.7065
1 36.8162 49.125 28.775
1 35.4869 46.8533 28.8203
1 38.153 45.5231 26.6863
1 39.3376 47.6783 26.633
1 39.3145 49.1909 28.7481
1 37.9421 46.7938 28.7464
1 40.5954 45.4602 26.7122
1 41.8299 47.7289 26.7983
1 41.7771 49.1087 28.7755
1 40.5235 46.8965 28.8159
1 43.1245 45.4353 26.77
1 44.3701 47.6451 26.713
1 44.3897 49.0676 28.665
1 43.1611 46.8874 28.8424
1 45.6575 45.3386 26.7807
1 46.9737 47.6823 26.5841
1 46.9923 49.1402 28.6422
1 45.7097 46.8562 28.7478
1 48.3104 45.4415 26.6223
1 49.6061 47.6551 26.6539
1 49.5569 49.2437 28.7586
1 48.2224 46.9813 28.6461
1 35.4558 49.9886 26.5649
1 38.0804 49.9353 26.6165
1 40.4503 49.8991 26.6731
1 43.1796 49.8996 26.6497
1 45.6643 49.8314 26.6904
1 48.2444 49.9171 26.6083
1 47.045 34.328 30.8408
1 49.5045 34.3506 30.8168
1 39.62 39.1167 30.9208
1 42.0964 38.6829 30.8784
1 43.4723 36.5301 30.8927
1 44.5874 38.8868 30.8013
1 45.9471 36.5414 30.8141
1 47.1445 38.7366 30.8485
1 48.5058 36.6418 30.7961
1 49.573 38.8921 30.7256
1 37.0444 43.384 30.9584
1 38.3309 41.1721 30.9414
1 39.5424 43.3163 30.9573
1 40.8292 41.0483 31.0177
1 41.9959 43.1957 30.9468
1 43.2584 40.9672 30.88
1 44.3998 43.2012 30.9472
1 45.8542 41.0078 30.9355
1 46.9964 43.3038 30.8896
1 48.335 41.1269 30.8446
1 49.5559 43.3157 30.7837
1 34.3944 47.8598 30.9185
1 35.7438 45.6554 30.9234
1 36.9067 47.7494 30.8785
1 38.1971 45.4609 30.9087
1 39.4039 47.7293 30.819
1 40.6355 45.4007 30.9277
1 41.9005 47.6915 30.8723
1 43.1451 45.4367 30.9081
1 44.4098 47.7083 30.8615
1 45.7197 45.4281 30.9005
1 46.9592 47.6656 30.8647
1 48.3188 45.5097 30.8247
1 49.5083 47.7722 30.7951
1 35.5734 50.0297 30.9672
1 38.131 49.9765 30.9426
1 40.644 49.8634 30.915
1 43.1737 49.9048 30.7736
1 45.6717 49.8471 30.8548
1 48.1835 49.9503 30.8345
1 44.7874 35.8631 33.0303
1 47.2821 35.8026 32.9036
1 49.8585 35.8373 32.9159
1 39.4776 40.1773 33.1
1 42.051 40.1637 32.9871
1 40.6943 38.1523 33.0126
1 44.6444 40.2171 32.9798
1 43.3039 37.9705 33.0663
1 47.1692 40.2291 32.9228
1 45.9147 38.0276 33.0098
1 49.716 40.3465 32.9037
1 48.4201 38.1263 32.9671
1 36.7215 44.6915 32.9931
1 39.358 44.6763 33.0577
1 37.9998 42.4343 33.0552
1 41.8648 44.604 32.9945
1 40.6037 42.341 33.0976
1 44.4344 44.6305 33.0227
1 43.118 42.3974 33.0717
1 47.0308 44.7381 32.9622
1 45.7415 42.5302 32.9254
1 49.5974 44.7831 32.8827
1 48.2566 42.5016 32.9698
1 34.4427 49.1461 32.9787
1 36.8839 49.1346 33.039
1 35.5587 46.8221 32.9785
1 39.374 49.2514 33.0063
1 38.0624 46.9569 33.058
1 41.9224 49.1524 32.9042
1 40.6484 46.8873 32.9561
1 44.4605 49.1386 32.8941
1 43.2114 46.8841 32.935
1 47.0599 49.0997 33.0001
1 45.7507 46.9285 32.9511
1 49.5852 49.2576 32.9515
1 48.2702 46.9403 32.8778
1 44.7278 35.9408 37.2117
1 47.6097 34.4041 34.9353
1 47.2862 35.585 37.191
1 50.0759 34.4805 34.9533
1 49.8182 35.8113 37.1542
1 39.6249 38.8497 35.1825
1 39.4019 40.2474 37.309
1 42.0398 38.5865 35.1759
1 42.089 40.2661 37.2536
1 40.7801 38.238 37.3815
1 43.694 36.5757 35.0874
1 44.6241 38.7502 35.0667
1 44.6049 40.0979 37.2109
1 43.3096 37.9394 37.2351
1 46.1858 36.5963 35.1539
1 47.1217 38.888 35.0501
1 47.1886 40.3674 37.2513
1 45.9762 38.0592 37.171
1 48.6767 36.6799 35.0847
1 49.7664 38.8769 35.106
1 49.6865 40.1805 37.2378
1 48.3826 38.0146 37.1269
1 37.0678 43.4551 35.1226
1 36.7896 44.6531 37.2496
1 38.3233 41.1437 35.1841
1 39.5986 43.2311 35.0782
1 39.2942 44.563 37.1723
1 37.9531 42.4201 37.235
1 40.8359 40.8547 35.2193
1 42.0835 43.2321 35.1417
1 41.9622 44.6333 37.1937
1 40.6526 42.3971 37.1707
1 43.3966 41.017 35.125
1 44.5639 43.1603 35.0802
1 44.4959 44.6864 37.0794
1 43.3113 42.4608 37.239
1 45.928 40.9455 35.0921
1 47.1329 43.247 34.924
1 47.0663 44.6566 37.0919
1 45.8468 42.4833 37.1199
1 48.3621 41.0449 35.0605
1 49.5729 43.277 35.0998
1 49.5468 44.805 37.1604
1 48.4462 42.438 37.1412
1 34.5813 47.8468 35.1608
1 34.5383 49.148 37.2175
1 35.8235 45.5439 35.1268
1 36.9765 47.7711 35.0787
1 36.9213 49.1182 37.1824
1 35.5439 46.8755 37.2134
1 38.2682 45.5347 35.0907
1 39.4327 47.7266 35.0812
1 39.4332 49.081 37.1649
1 37.9998 46.8637 37.177
1 40.7599 45.4733 35.0712
1 41.9646 47.6887 35.0022
1 41.9944 49.0895 37.1702
1 40.6379 46.9423 37.245
1 43.1627 45.4366 35.0608
1 44.4487 47.6915 35.0543
1 44.6424 49.1337 37.0777
1 43.2558 46.9402 37.0961
1 45.7755 45.5403 35.0323
1 47.0557 47.6418 35.0029
1 47.1986 49.0273 37.0611
1 45.7301 46.9183 37.1679
1 48.3155 45.5809 34.9989
1 49.5336 47.7213 35.0137
1 49.7006 49.1802 37.0609
1 48.3264 46.9111 37.0156
1 35.6457 50.1524 35.0537
1 38.1473 49.9108 35.1389
1 40.6635 49.9393 35.1358
1 43.19 49.8709 34.9658
1 45.7854 49.9818 34.9466
1 48.279 49.8867 35.0135
1 44.6916 36.0529 41.3958
1 47.3122 34.3593 39.2325
1 47.2367 35.7388 41.3679
1 49.7004 34.4324 39.1864
1 49.757 35.6946 41.3312
1 39.5119 38.9318 39.3789
1 39.3724 40.4283 41.5279
1 42.0454 38.647 39.4523
1 42.0919 40.3388 41.5112
1 40.7028 38.3304 41.4641
1 43.5702 36.587 39.3689
1 44.6953 38.6838 39.3371
1 44.6223 40.2539 41.375
1 43.3034 38.0645 41.4313
1 45.9986 36.4749 39.2121
1 47.2733 38.7911 39.3073
1 47.2185 40.3577 41.3364
1 45.9646 38.1097 41.3589
1 48.5153 36.6851 39.3422
1 49.7534 38.8798 39.2811
1 49.8524 40.2117 41.2831
1 48.4428 37.998 41.3928
1 37.1244 43.4384 39.3608
1 36.8676 44.703 41.4505
1 38.1782 40.995 39.3025
1 39.5211 43.1328 39.3818
1 39.3622 44.6489 41.3927
1 38.0626 42.478 41.3875
1 40.9439 41.0087 39.3625
1 42.0367 43.1954 39.2833
1 41.979 44.761 41.273
1 40.7368 42.436 41.4771
1 43.4421 40.9797 39.2781
1 44.6287 43.1999 39.2938
1 44.6681 44.7773 41.3285
1 43.3081 42.5784 41.3925
1 45.9133 40.9577 39.2252
1 47.1283 43.2853 39.2321
1 47.18 44.7712 41.2634
1 45.8884 42.4212 41.2983
1 48.5768 41.1218 39.339
1 49.6998 43.3836 39.1822
1 49.7099 44.7563 41.3708
1 48.4024 42.5179 41.3384
1 34.5585 47.9186 39.2958
1 34.4799 49.3018 41.469
1 35.8906 45.6302 39.3189
1 37.0339 47.801 39.3256
1 36.862 49.113 41.3527
1 35.4594 46.9093 41.4513
1 38.3339 45.4904 39.3201
1 39.4113 47.6614 39.3514
1 39.4327 49.1253 41.3912
1 38.0642 46.9702 41.4517
1 40.6979 45.4126 39.243
1 41.9324 47.6777 39.2417
1 42.0194 49.1799 41.3839
1 40.6425 46.8338 41.327
1 43.2591 45.4367 39.1758
1 44.4471 47.6591 39.2887
1 44.6475 49.1679 41.3457
1 43.2459 46.9886 41.3622
1 45.7643 45.4732 39.2245
1 47.062 47.6077 39.1844
1 47.152 49.1318 41.234
1 44.6165 47.6556 43.4644
1 50.8326 45.5161 39.2765
1 49.5145 47.7412 39.2575
1 49.669 49.1791 41.2701
1 45.8872 47.007 41.3013
1 35.6143 50.0745 39.298
1 38.1711 50.0275 39.2085
1 40.7262 49.9098 39.2965
1 43.3046 49.8084 39.2238
1 45.9481 49.8296 39.1755
1 48.3523 49.89 39.1239
1 47.19 34.2726 43.5714
1 49.5925 34.3719 43.3704
1 39.5433 38.9653 43.5696
1 42.1808 38.782 43.6066
1 43.5036 36.5663 43.4407
1 44.6169 38.8242 43.4592
1 45.9886 36.4787 43.4774
1 47.1591 38.7504 43.5075
1 48.5528 36.4918 43.4737
1 49.7583 38.851 43.391
1 37.1375 43.3951 43.4999
1 38.2323 41.1078 43.6403
1 39.6808 43.2646 43.4452
1 40.9927 40.951 43.6099
1 42.1325 43.2807 43.4441
1 43.4716 41.1672 43.5678
1 44.7798 43.312 43.3955
1 45.94 41.1051 43.483
1 47.2843 43.2902 43.5059
1 48.4434 41.078 43.4257
1 49.778 43.2957 43.4382
1 34.6584 47.8734 43.5496
1 35.9216 45.5872 43.5553
1 37.0439 47.7927 43.5712
1 38.4115 45.5149 43.5733
1 39.4555 47.7428 43.5054
1 40.8248 45.4733 43.5292
1 42.0078 47.6595 43.4664
1 43.4446 45.441 43.5184
1 46.0436 46.9174 45.4408
1 46.046 45.5595 43.3117
1 47.2305 47.7886 43.2936
1 48.5054 45.5077 43.4543
1 49.7067 47.7519 43.4317
1 35.6545 50.0654 43.5396
1 38.1462 49.9657 43.5215
1 40.7822 49.862 43.3927
1 43.236 49.9374 43.5359
1 45.8647 49.8755 43.4153
1 48.4772 49.9018 43.3645
1 44.7047 35.9622 45.5817
1 47.2582 35.7156 45.5537
1 49.8339 35.5106 45.5992
1 39.4649 40.5058 45.6529
1 42.2258 40.3582 45.6905
1 40.7488 38.4265 45.6396
1 44.687 40.2331 45.5279
1 43.3371 38.0768 45.6375
1 47.3338 40.3381 45.6369
1 45.9478 38.1064 45.6609
1 49.7819 40.2482 45.4732
1 48.551 38.035 45.4507
1 36.901 44.7305 45.6789
1 39.4356 44.7047 45.727
1 38.1744 42.6343 45.6607
1 41.9638 44.7561 45.5587
1 40.7588 42.526 45.5701
1 44.6745 44.7415 45.6153
1 43.3482 42.5699 45.6139
1 47.2299 44.7192 45.5171
1 45.8805 42.4007 45.6261
1 49.8354 44.6918 45.5322
1 48.4935 42.5922 45.6035
1 34.4891 49.24 45.6344
1 36.9284 49.1266 45.7623
1 35.5979 46.8723 45.6814
1 39.4252 49.1915 45.5105
1 38.084 46.8863 45.6266
1 41.9836 49.1252 45.5432
1 40.5906 47.0225 45.6589
1 44.5807 49.1122 45.5247
1 43.2743 46.8925 45.5405
1 48.5011 51.4478 45.5214
1 47.2132 49.2134 45.4916
1 49.7572 49.2735 45.4753
1 48.4864 47.0034 45.4683
1 44.7207 35.8458 49.8602
1 47.6328 34.5025 47.6674
1 47.3636 35.6406 49.8583
1 49.9394 34.368 47.7172
1 49.7603 35.7352 49.6309
1 39.8051 39.164 47.7312
1 39.6427 40.4518 49.7627
1 42.1774 38.8045 47.6847
1 42.1575 40.2428 49.7105
1 40.7069 38.2544 49.6985
1 43.4111 36.6315 47.6865
1 44.6381 38.8708 47.7211
1 44.7036 40.2837 49.8279
1 43.3935 37.99 49.7827
1 45.9506 36.4707 47.7127
1 47.1873 38.9293 47.6834
1 47.1923 40.2668 49.8306
1 45.9083 38.0066 49.6679
1 48.4705 36.7119 47.6271
1 49.8635 38.8055 47.4738
1 49.7347 40.2085 49.7626
1 48.5404 37.9851 49.6966
1 37.2319 43.3933 47.7199
1 36.8926 44.6478 49.8967
1 38.3647 41.1612 47.824
1 39.7241 43.292 47.7104
1 39.3737 44.7854 49.8729
1 38.2519 42.5186 49.8557
1 41.0624 41.0766 47.6761
1 42.1831 43.4305 47.6883
1 42.1249 44.7227 49.8548
1 40.7393 42.5449 49.7529
1 43.5911 41.1762 47.7284
1 44.6856 43.3628 47.7035
1 44.6347 44.7921 49.7485
1 43.2672 42.4689 49.8399
1 45.978 41.1323 47.6348
1 47.2449 43.3327 47.6283
1 47.2161 44.8291 49.7174
1 45.8551 42.5741 49.8197
1 48.5323 41.0728 47.6973
1 49.8053 43.2337 47.6277
1 49.7429 44.8182 49.6552
1 48.4395 42.462 49.8224
1 34.7428 47.8147 47.7191
1 34.5875 49.0141 49.7495
1 35.7517 45.4998 47.7373
1 37.0705 47.8678 47.8679
1 36.9915 49.3843 49.8909
1 35.6321 46.8076 49.841
1 38.3067 45.5071 47.7654
1 39.4852 47.8026 47.7387
1 39.4482 49.2131 49.8034
1 38.1144 47.0067 49.8916
1 40.7884 45.5679 47.759
1 42.0322 47.7374 47.6915
1 42.1118 49.3146 49.7518
1 40.7086 47.0085 49.798
1 43.4496 45.5524 47.6132
1 44.6155 47.8222 47.6411
1 44.6174 49.1953 49.7744
1 43.3205 47.0761 49.7564
1 45.9708 45.5287 47.7053
1 47.1903 47.7302 47.604
1 47.1921 49.2888 49.7002
1 45.8506 47.1588 49.741
1 48.4084 45.5524 47.548
1 49.758 47.8167 47.5547
1 51.0332 50.0046 51.7268
1 48.4513 47.0465 49.6677
1 35.6561 50.0844 47.6656
1 38.1593 50.0447 47.7052
1 40.7987 49.9448 47.5753
1 43.3482 49.9285 47.5906
1 45.96 49.9685 47.5939
1 49.7755 49.2413 49.5833
1 44.836 35.9049 54.0605
1 48.6117 34.1779 51.4435
1 47.3654 35.7642 53.9556
1 51.0353 34.3272 51.0829
1 49.9608 35.8882 53.9027
1 39.7014 38.8282 51.877
1 39.5942 40.102 54.0548
1 42.2415 38.8543 51.8292
1 42.056 40.3583 53.9094
1 40.8394 37.9169 53.8407
1 43.6038 36.7051 51.9787
1 44.7604 38.7504 51.9783
1 43.3589 38.2898 54.0595
1 42.4152 35.9647 53.9637
1 46.1165 36.5512 51.85
1 47.307 38.6813 51.8752
1 47.1134 40.2037 53.9665
1 45.9235 38.017 54.0069
1 48.5747 36.4702 51.837
1 49.8415 38.808 51.8482
1 49.7651 40.3819 53.9848
1 48.5435 38.0005 53.9564
1 37.1556 43.1922 51.9249
1 37.1758 44.5372 54.0928
1 38.3408 40.9565 51.8122
1 39.6431 43.4045 51.9732
1 39.6161 44.7555 54.0703
1 38.3188 42.3244 54.1051
1 40.8522 41.137 51.8793
1 42.1079 43.3927 51.8694
1 42.1209 44.7277 53.9978
1 40.8143 42.4325 54.0531
1 43.4227 41.0789 51.8192
1 44.6706 43.3014 51.8649
1 44.7183 44.7135 53.9139
1 43.3242 42.4714 53.9688
1 45.9462 40.9969 51.831
1 47.1861 43.2924 51.9179
1 45.8901 42.4995 53.9117
1 44.6376 40.4303 53.9888
1 48.5219 41.038 51.9783
1 49.6799 43.3168 51.8303
1 49.7751 44.8167 53.8282
1 48.4608 42.5528 53.992
1 34.6583 47.6779 52.0124
1 34.6656 48.8742 54.1201
1 35.9185 45.4681 52.0299
1 36.9646 47.8194 51.8699
1 37.1294 49.1523 53.9797
1 35.9063 46.7455 54.0835
1 38.2842 45.6195 51.9628
1 39.4841 47.8137 51.9078
1 39.5773 49.1752 54.002
1 38.2553 46.942 54.0184
1 40.8309 45.6349 51.8415
1 42.1099 47.7307 51.8833
1 42.1704 49.1403 53.9521
1 40.8645 47.0196 53.9143
1 43.3728 45.5542 51.897
1 44.6968 47.8054 51.8451
1 44.5908 49.3326 53.8536
1 43.3848 46.9146 54.0038
1 46.0381 45.6721 51.8699
1 47.1786 47.756 51.8924
1 47.2354 49.2367 53.9242
1 45.9007 47.0338 53.9753
1 48.4976 45.5738 51.8738
1 49.7823 47.8413 51.8144
1 48.4516 46.9407 53.9354
1 47.199 44.7435 53.9417
1 35.5738 49.9777 51.9178
1 38.3616 50.0285 51.9386
1 40.8552 49.9972 51.9641
1 43.4415 49.9553 51.8471
1 46.0977 50.0533 51.7695
1 48.5341 50.0082 51.6984
1 44.732 36.0854 58.1917
1 48.7688 33.83 53.7748
1 47.3726 35.8452 58.0997
1 49.8983 34.533 56.007
1 49.8158 35.8861 58.0808
1 39.6968 38.7508 56.077
1 39.6291 40.2083 58.2487
1 42.0422 39.0591 56.014
1 42.1648 40.3719 58.2534
1 40.8488 37.997 58.1072
1 41.1655 36.7086 55.8596
1 43.5098 36.7702 56.1916
1 44.7331 40.431 58.2246
1 43.2158 38.185 58.0753
1 46.0453 36.5811 56.1295
1 47.1012 38.8066 56.1227
1 47.3048 40.4524 58.0845
1 45.7636 38.2017 58.1606
1 48.4899 36.5347 55.9794
1 49.6938 38.7331 56.0852
1 49.844 40.321 58.1218
1 48.4386 38.0665 58.0936
1 37.0627 42.9912 56.1954
1 36.9737 44.461 58.2099
1 38.4464 40.8636 56.1592
1 39.5533 43.4123 56.1595
1 39.4838 44.8366 58.185
1 38.364 42.3012 58.2415
1 40.8314 41.1453 56.1024
1 42.0832 43.335 56.1032
1 42.0068 44.8204 58.1367
1 40.792 42.6263 58.1452
1 43.4164 41.1967 56.0437
1 44.6376 43.3428 56.0298
1 44.6036 44.8007 58.3037
1 43.3723 42.6205 58.1963
1 44.5685 38.9432 56.0113
1 46.0046 41.0188 56.1269
1 47.2886 44.7583 58.0658
1 45.8396 42.6703 58.0677
1 48.4904 41.0467 55.9851
1 49.747 43.3655 56.0099
1 49.7899 44.8394 58.1341
1 48.4369 42.5621 58.0856
1 34.6383 47.5878 56.2407
1 34.7821 48.9522 58.1855
1 35.8473 45.307 56.1328
1 36.9225 47.7888 56.1625
1 37.1479 49.1382 58.2358
1 35.9643 46.7213 58.185
1 38.2698 45.6179 56.1706
1 39.5351 47.7643 56.0347
1 39.613 49.299 58.3109
1 38.3385 46.9457 58.2416
1 40.8163 45.552 56.169
1 42.0384 47.7682 56.0918
1 42.0565 49.2602 58.1389
1 40.8039 47.1661 58.1861
1 43.4541 45.5433 56.0484
1 44.5984 47.7834 56.0064
1 44.6794 49.2017 58.1431
1 43.2707 47.0079 58.1492
1 45.8453 45.5572 56.091
1 47.2144 47.7925 56.0236
1 47.1849 49.2314 58.14
1 45.8759 46.9225 58.0966
1 47.1577 43.3126 55.9754
1 48.4797 45.4388 55.993
1 49.8451 49.2729 58.0772
1 48.5847 47.0718 58.1232
1 35.6767 49.9162 56.1691
1 38.2562 49.9973 56.0659
1 40.78 50.0231 56.0591
1 43.3982 49.9243 56.0547
1 45.9056 49.8947 55.9885
1 48.503 50.0078 56.0518
1 44.9031 36.0142 62.2844
1 47.6163 34.6362 60.2522
1 47.437 35.8499 62.3925
1 50.0073 34.4628 60.0719
1 49.8979 35.681 62.2719
1 39.6789 38.6376 60.3562
1 39.7022 40.1006 62.2852
1 41.9657 38.8623 60.2673
1 42.2007 40.224 62.3453
1 40.8906 37.8478 62.4332
1 43.5953 36.7005 60.2537
1 44.633 38.9016 60.244
1 44.8079 40.3405 62.3325
1 43.343 38.0719 62.3824
1 46.1155 36.6617 60.1809
1 47.3044 38.896 60.1973
1 47.2978 40.1521 62.3484
1 45.9727 38.0716 62.3761
1 48.6848 36.7765 60.289
1 49.8564 38.8859 60.2656
1 49.85 40.2457 62.2605
1 48.6164 38.1356 62.3663
1 37.0329 42.9838 60.2796
1 37.1445 44.4861 62.3678
1 38.3402 40.7845 60.3108
1 39.5027 43.365 60.2469
1 39.6176 44.7217 62.4511
1 38.4066 42.2875 62.2624
1 40.8957 41.1644 60.2729
1 42.147 43.3807 60.2671
1 42.0159 44.8028 62.3952
1 40.8252 42.4531 62.3921
1 43.4309 41.1663 60.3382
1 44.7413 43.2504 60.2208
1 44.6668 44.6951 62.2687
1 43.3307 42.468 62.3615
1 46.0499 41.0789 60.2019
1 47.2202 43.2999 60.1778
1 47.306 44.71 62.337
1 46.0596 42.5258 62.2804
1 48.4573 41.112 60.2024
1 49.7391 43.3237 60.1083
1 49.7863 44.889 62.2427
1 48.5303 42.4909 62.2576
1 34.6047 47.4979 60.3601
1 34.7672 48.9773 62.3134
1 35.7266 45.1345 60.3893
1 37.0294 47.762 60.2278
1 37.1771 49.0903 62.3905
1 35.8492 46.7213 62.3118
1 38.2008 45.5113 60.3077
1 39.5842 47.7712 60.321
1 39.6442 49.2766 62.4013
1 38.3054 46.9798 62.2943
1 40.7905 45.6102 60.2219
1 42.1615 47.7278 60.2849
1 42.2633 49.2661 62.3322
1 40.8316 46.9425 62.3183
1 43.3828 45.5491 60.2513
1 44.7284 47.7945 60.2464
1 44.8531 49.1834 62.4009
1 43.3969 47.0082 62.3322
1 46.031 45.5159 60.2146
1 47.3263 47.7505 60.171
1 47.3001 49.2608 62.2432
1 45.9737 46.9199 62.3029
1 48.5312 45.5666 60.1905
1 49.8495 47.7145 60.2028
1 49.8592 49.2196 62.2679
1 48.4761 47.0713 62.2274
1 36.033 50.0135 60.2854
1 38.3763 50.0234 60.3756
1 40.9513 49.924 60.3127
1 43.5029 49.9817 60.2632
1 46.0535 49.9531 60.1713
1 48.6208 49.9506 60.1785
1 44.7855 35.9505 66.6068
1 47.408 34.3644 64.4416
1 47.4067 35.7776 66.4681
1 49.7801 34.5165 64.4912
1 50.0397 35.8332 66.5254
1 39.6929 38.6325 64.4613
1 39.8332 40.0266 66.624
1 42.1403 38.7869 64.5119
1 42.2844 40.27 66.5695
1 40.8732 37.9307 66.5033
1 43.624 36.5636 64.4227
1 44.648 38.8437 64.4869
1 44.7661 40.4469 66.5393
1 43.4162 37.9623 66.5728
1 46.065 36.5563 64.5057
1 47.2744 38.8335 64.4153
1 47.2971 40.3224 66.4233
1 45.9513 38.1277 66.5009
1 48.6574 36.6816 64.3977
1 49.8195 38.8679 64.3834
1 49.8363 40.4391 66.5498
1 48.5819 38.0801 66.5397
1 37.1238 42.8774 64.37
1 37.0468 44.3721 66.5704
1 38.6663 40.8335 64.4162
1 39.5491 43.2292 64.4701
1 39.5106 44.6058 66.5084
1 38.4333 42.116 66.5635
1 41.0879 41.04 64.4434
1 42.1465 43.3233 64.4019
1 42.1063 44.7268 66.4308
1 40.8206 42.5391 66.4548
1 43.461 41.0913 64.3762
1 44.7505 43.3487 64.3525
1 44.705 44.8248 66.4485
1 43.4907 42.5872 66.4399
1 45.9421 41.0289 64.4579
1 47.309 43.3611 64.4198
1 47.2234 44.819 66.4606
1 45.9611 42.5929 66.44
1 48.5519 41.1209 64.418
1 49.8456 43.2963 64.2791
1 49.9527 44.8169 66.3787
1 48.6049 42.636 66.4101
1 34.8175 47.6089 64.3534
1 34.7604 49.0065 66.5351
1 35.9523 45.2981 64.431
1 37.1384 47.7648 64.381
1 37.2415 49.074 66.4525
1 35.8647 46.7016 66.5138
1 38.2297 45.4783 64.4642
1 39.5722 47.8355 64.447
1 39.5974 49.2726 66.4919
1 38.3611 46.9821 66.4916
1 40.7636 45.4525 64.541
1 42.1767 47.8088 64.4564
1 42.222 49.2408 66.5727
1 40.8521 46.9931 66.4947
1 43.4802 45.5353 64.3511
1 44.7676 47.7349 64.4242
1 44.7555 49.1681 66.3783
1 43.4421 46.9404 66.4849
1 46.0829 45.52 64.3627
1 47.2605 47.8023 64.2977
1 47.2762 49.2615 66.4243
1 46.0101 46.8715 66.4382
1 48.5985 45.5611 64.4097
1 49.7993 47.7458 64.287
1 49.9757 49.1775 66.4884
1 48.5303 47.0322 66.4558
1 35.7017 50.0229 64.415
1 38.3427 50.1004 64.5176
1 41.0039 50.0378 64.5439
1 43.5518 49.983 64.3868
1 46.1023 50.0649 64.2965
1 48.647 49.9994 64.4094
1 44.9594 36.0408 70.7489
1 47.3747 34.4389 68.4987
1 47.5542 35.8328 70.5451
1 49.7583 34.5336 68.6381
1 50.0615 35.8021 70.6944
1 39.7368 38.5127 68.7338
1 39.5942 40.1315 70.7169
1 42.1402 38.7744 68.6233
1 42.2342 40.3817 70.7659
1 40.9646 38.2243 70.822
1 43.7197 36.7574 68.7984
1 44.8389 38.899 68.6235
1 44.6887 40.3411 70.669
1 43.4314 38.1343 70.7811
1 46.1298 36.5485 68.5584
1 47.2722 38.8107 68.5581
1 47.2555 40.3233 70.6761
1 46.0336 38.1341 70.6871
1 48.8252 36.6967 68.5196
1 49.7682 38.945 68.6009
1 49.7806 40.3615 70.6073
1 48.5661 38.1667 70.7033
1 37.1374 43.0533 68.5999
1 37.1038 44.5316 70.6067
1 38.4064 40.772 68.673
1 39.5649 43.2844 68.5378
1 39.5404 44.8612 70.5286
1 38.2882 42.3114 70.6518
1 40.8267 41.2157 68.659
1 42.0261 43.3693 68.5359
1 42.2502 44.7949 70.5469
1 40.8119 42.6345 70.6133
1 43.4734 41.1107 68.5692
1 44.7181 43.3991 68.4837
1 44.7465 44.7891 70.7701
1 43.4783 42.6187 70.6017
1 46.0248 41.1057 68.6433
1 47.3021 43.207 68.4648
1 47.3634 45.0177 70.5034
1 46.0441 42.7205 70.5899
1 48.5214 41.1095 68.5093
1 49.8408 43.3728 68.4828
1 49.8218 44.8953 70.5643
1 48.5825 42.5499 70.5309
1 34.6688 47.587 68.6177
1 34.8013 48.88 70.6115
1 35.81 45.2472 68.6403
1 37.006 47.7373 68.649
1 37.058 49.3699 70.6687
1 35.845 46.7332 70.702
1 38.2489 45.5315 68.4618
1 39.5867 47.6391 68.6046
1 39.6075 49.165 70.6207
1 38.3354 47.0613 70.6698
1 40.9519 45.5944 68.57
1 42.1939 47.7525 68.5566
1 42.0586 49.2647 70.6745
1 40.9534 47.0443 70.6311
1 43.5056 45.5129 68.6187
1 44.683 47.7616 68.4972
1 44.6684 49.3272 70.6244
1 43.4314 46.9967 70.5736
1 45.9756 45.5029 68.5327
1 47.2553 47.6716 68.5512
1 47.2832 49.2541 70.6317
1 45.9348 47.0404 70.712
1 48.54 45.5356 68.447
1 49.794 47.7156 68.5341
1 49.8281 49.2284 70.6173
1 48.5053 47.1863 70.5397
1 35.7839 49.9384 68.5356
1 38.3444 50.0401 68.6653
1 40.8256 49.9175 68.5974
1 43.444 49.9529 68.6073
1 45.9664 49.9682 68.5477
1 48.5807 49.8389 68.5137
1 44.964 36.0696 74.929
1 47.4174 34.5222 72.7316
1 47.4275 35.7709 74.8416
1 49.8041 34.5016 72.7476
1 49.9673 35.8609 74.8225
1 39.7289 38.8206 72.9611
1 39.7633 40.2839 75.1085
1 42.204 38.8725 72.9316
1 42.2864 40.4873 74.9439
1 40.852 38.1013 75.0786
1 43.7411 36.7399 72.9252
1 44.7781 38.96 72.8333
1 44.765 40.5844 74.8773
1 43.4197 38.1145 74.9156
1 46.4357 36.6676 72.7939
1 47.3607 38.972 72.8081
1 47.3842 40.4868 74.8279
1 45.9898 38.328 74.8802
1 48.7808 36.7533 72.8036
1 49.9347 38.997 72.7613
1 49.9427 40.4526 74.9078
1 48.5093 38.1447 74.8899
1 37.1004 43.1568 72.7459
1 37.0914 44.6451 74.8084
1 38.4356 40.8502 72.842
1 39.5302 43.3396 72.8129
1 39.6384 44.8731 74.86
1 38.3061 42.3617 74.8927