5538
Atoms. Timestep: 60000
1 46.8058 40.8915 8.96715
1 47.5455 38.5123 8.94881
1 46.3143 37.1395 10.7169
1 49.1379 37.2368 7.4958
1 48.5286 36.389 9.83287
1 42.1138 39.9902 8.95952
1 40.0157 41.5497 9.24834
1 43.0896 39.6256 11.1029
1 42.5406 42.2818 9.20141
1 44.3426 40.6681 8.24836
1 45.135 42.8449 8.80656
1 41.7989 41.0795 12.6359
1 45.9927 39.9915 11.9563
1 47.3769 43.0691 9.93885
1 45.2546 39.1442 9.91938
1 48.0755 39.9247 10.7809
1 47.1288 40.6853 13.8963
1 44.5828 37.9696 12.179
1 45.5886 35.8285 12.7446
1 49.6899 36.9716 13.3919
1 47.632 38.1954 12.3884
1 47.9545 35.7687 12.1466
1 39.4333 46.1427 9.80137
1 36.6347 44.3649 9.78947
1 37.9705 42.7703 8.70636
1 39.6532 41.8484 11.5967
1 40.3446 44.7779 12.2697
1 38.8175 43.9046 10.7322
1 40.665 39.7744 10.9112
1 41.7143 43.047 11.3832
1 41.6862 45.7887 10.3844
1 40.7095 43.9157 9.26028
1 44.4663 41.598 10.6929
1 47.0457 44.0108 14.198
1 43.671 44.1098 10.4485
1 43.7641 42.5993 12.6845
1 45.3176 42.2195 14.469
1 47.8237 44.5252 11.9505
1 45.9976 45.0121 9.99568
1 46.3163 42.3658 12.1576
1 49.2327 40.006 12.8426
1 50.1852 44.0992 11.6142
1 48.2924 46.1957 9.97732
1 48.7695 42.1997 11.76
1 37.708 47.996 10.1084
1 38.7076 50.2546 9.94449
1 38.9051 44.7377 7.83929
1 35.8194 46.6795 10.6052
1 34.8385 46.0562 12.8622
1 37.1906 46.273 8.47903
1 37.0319 45.1796 12.0723
1 40.2648 48.5647 10.5812
1 38.7194 49.3829 12.2609
1 38.8976 46.832 11.9807
1 41.1225 45.7886 14.2642
1 42.9874 48.8993 11.7263
1 42.2885 52.68 12.1209
1 41.4196 47.2962 12.3333
1 42.8182 45.2359 12.4828
1 44.2992 48.0807 8.03939
1 44.4802 49.5209 9.92012
1 42.3263 47.9895 9.52577
1 44.0521 46.4104 9.91982
1 45.3029 44.5515 12.267
1 46.0254 49.123 11.7351
1 46.1298 47.5456 9.74992
1 49.3356 44.8511 13.9655
1 49.3791 46.5432 12.1756
1 49.5867 49.1478 14.2102
1 46.7639 46.7831 12.0124
1 36.2106 48.7438 11.8829
1 35.7913 50.3856 13.7435
1 41.1145 50.4457 12.076
1 43.8473 51.8925 10.2124
1 44.3796 47.1202 12.0558
1 48.3188 48.6473 12.2189
1 41.6277 35.0434 17.8754
1 46.9999 32.7785 17.3788
1 44.9918 34.0897 17.2089
1 49.2903 33.4394 16.8567
1 49.2688 35.4191 15.3967
1 40.1428 37.0305 17.4228
1 39.6953 39.3073 16.9246
1 41.6127 37.3131 15.5812
1 40.3484 39.2265 14.6625
1 42.1989 35.9427 20.0934
1 43.2843 35.7336 16.2725
1 42.4373 38.6633 13.567
1 44.1597 40.2679 13.4547
1 43.4605 36.4374 13.9185
1 43.4981 34.1856 19.0886
1 46.102 37.4328 16.5385
1 45.8297 38.4979 14.1427
1 45.3074 35.471 15.1137
1 47.2562 35.1259 16.6108
1 48.6092 37.2529 16.7386
1 48.4621 38.5863 14.717
1 47.3291 36.4816 14.4152
1 35.1017 43.6466 16.4404
1 38.3004 43.2821 13.2291
1 37.2722 39.204 17.3503
1 38.3738 42.5439 15.7188
1 38.6917 45.5304 14.0342
1 36.348 41.58 16.5555
1 38.1154 40.1807 15.2373
1 40.7992 42.4964 16.1104
1 41.7748 43.27 14.0488
1 39.8073 41.4832 13.9555
1 42.166 39.3843 16.8643
1 43.3606 42.6567 16.0884
1 43.968 44.418 14.5089
1 42.1466 40.8026 15.015
1 43.9259 38.1262 15.647
1 47.1481 42.1291 16.0894
1 45.578 43.988 16.2482
1 44.3907 40.4861 15.9899
1 46.6896 39.6918 16.0492
1 48.6358 44.0386 16.2834
1 51.6708 44.4247 13.4705
1 48.9975 42.2665 14.2466
1 34.1276 45.2598 14.9502
1 33.5969 47.5015 15.8685
1 35.9708 44.0165 14.0076
1 35.814 46.6504 15.8827
1 35.7625 48.9737 15.8497
1 34.6332 48.2585 13.8173
1 37.2062 44.7013 15.8792
1 38.1856 47.119 15.9757
1 37.7252 49.2454 14.4904
1 36.8166 47.1528 13.6532
1 39.6029 44.8073 16.0998
1 40.6345 47.0348 16.3521
1 42.0564 48.9863 14.082
1 39.8393 47.8925 14.1305
1 42.1043 44.8915 16.2069
1 42.8118 48.2664 16.2537
1 44.4838 48.9588 13.8575
1 43.2814 46.875 14.1602
1 44.2605 46.194 16.2327
1 45.9441 47.8917 15.6722
1 46.9603 49.459 14.0621
1 45.7636 46.1388 14.0863
1 47.1154 45.8446 16.17
1 49.5628 46.4336 15.9911
1 48.245 48.632 16.146
1 48.0637 47.0315 14.1662
1 33.7767 49.9897 16.6242
1 37.3196 50.7706 16.3389
1 39.3201 49.2254 16.3919
1 41.5286 50.2985 16.2138
1 44.666 49.5786 16.3204
1 46.7659 50.7134 16.2287
1 44.7579 35.5764 20.5637
1 45.9734 33.5511 19.4365
1 47.1979 34.9853 20.9326
1 48.3445 34.1905 18.9148
1 49.801 35.0392 20.8421
1 38.5923 38.215 19.0498
1 39.3108 40.2742 20.2412
1 41.0412 38.7209 19.061
1 41.9948 40.3593 20.3421
1 40.2739 37.393 20.7244
1 42.5529 37.2332 18.0725
1 44.409 38.8216 18.1273
1 44.5674 40.2402 20.3139
1 43.2552 38.1825 20.2575
1 44.7293 36.2959 18.2389
1 47.0648 38.7821 18.2737
1 46.9963 40.3362 20.2543
1 45.6736 37.8737 20.1825
1 47.1399 36.3817 18.7401
1 49.5311 39.0764 18.196
1 49.5666 40.4028 20.4157
1 48.3735 38.0762 20.3195
1 36.9301 43.3788 18.013
1 36.6544 44.675 20.1857
1 38.3678 41.1741 18.1076
1 39.4833 43.2882 18.1175
1 39.2351 44.7064 20.2896
1 37.9801 42.4608 20.2133
1 40.9081 41.0866 18.0979
1 41.9539 43.2842 18.1528
1 41.7718 44.7396 20.4127
1 40.5023 42.4168 20.2821
1 43.3494 41.1102 18.2305
1 44.4689 43.3184 18.2686
1 44.3144 44.6581 20.2667
1 43.1692 42.5235 20.4206
1 45.8662 41.063 18.0362
1 47.0984 43.4207 18.2823
1 46.9874 44.7666 20.4203
1 45.7818 42.5526 20.3067
1 48.3056 41.2534 18.2146
1 49.5973 43.2994 18.4222
1 49.5407 44.8135 20.3137
1 48.2406 42.5501 20.3937
1 34.2725 47.8735 18.1661
1 34.2813 49.1791 20.2261
1 35.5587 45.6053 18.0491
1 36.7922 47.8009 17.9081
1 36.7036 48.9586 20.2375
1 35.2025 46.7388 20.1572
1 38.0469 45.5788 18.1911
1 39.2676 47.7133 18.3836
1 39.1998 49.0717 20.4599
1 37.7912 46.8893 20.2962
1 40.6972 45.5092 18.3387
1 41.922 47.6794 18.4007
1 41.7741 49.0968 20.4267
1 40.4237 46.9166 20.4424
1 43.2465 45.556 18.3899
1 44.5394 47.7642 18.2472
1 44.336 49.0763 20.3733
1 43.0861 46.9338 20.4225
1 45.7571 45.535 18.2528
1 46.9405 47.7505 18.0571
1 46.9269 49.1743 20.3677
1 45.6823 46.8659 20.2798
1 48.3005 45.6208 18.2443
1 49.5402 47.7325 18.1914
1 49.4979 49.2239 20.3975
1 48.2868 47.0244 20.3155
1 35.6247 50.0166 18.2554
1 38.0777 49.9297 18.4202
1 40.5737 49.929 18.4505
1 43.1468 49.9016 18.3086
1 45.7617 49.9674 18.3344
1 48.1931 50.0052 18.3207
1 44.7299 35.9135 24.3683
1 48.6957 34.229 22.9161
1 47.2065 35.6922 24.4187
1 51.1451 34.3119 22.8833
1 49.7237 35.7229 24.523
1 39.4673 38.9095 22.3993
1 39.1491 40.2132 24.4958
1 41.9087 38.6324 22.3034
1 41.8817 40.2226 24.564
1 40.5878 38.1619 24.5969
1 43.4633 36.6333 22.1928
1 44.6207 38.7254 22.4217
1 44.5624 40.18 24.4491
1 43.1375 37.9993 24.383
1 46.064 36.601 22.4017
1 47.0163 38.8646 22.2783
1 47.0768 40.2561 24.5544
1 45.884 38.0719 24.4667
1 48.4952 36.6046 22.2849
1 49.576 38.8345 22.4475
1 49.6433 40.2469 24.4723
1 48.339 37.9299 24.4408
1 37.0481 43.4395 22.2835
1 36.6902 44.5563 24.4605
1 38.2784 41.1313 22.3588
1 39.458 43.3444 22.3194
1 39.1892 44.5469 24.5301
1 37.9841 42.3938 24.4547
1 40.7419 40.9539 22.4283
1 41.8933 43.2011 22.4892
1 41.8104 44.602 24.5673
1 40.4926 42.453 24.5679
1 43.2331 40.9502 22.4715
1 44.4254 43.2082 22.4709
1 44.3454 44.7208 24.5946
1 43.2598 42.4517 24.5419
1 45.7846 41.0498 22.3558
1 47.1073 43.2662 22.4946
1 46.9234 44.6956 24.557
1 45.7431 42.4293 24.5487
1 48.3073 40.9796 22.5183
1 49.5856 43.3182 22.4002
1 49.5766 44.7521 24.5464
1 48.3757 42.4889 24.5437
1 34.4521 47.8443 22.3565
1 34.3875 49.0556 24.5196
1 35.7175 45.6024 22.3278
1 36.799 47.7809 22.4408
1 36.7387 48.9873 24.5667
1 35.3128 46.7352 24.4344
1 38.1265 45.5506 22.4167
1 39.2691 47.7526 22.5321
1 39.1679 49.0897 24.5993
1 37.8864 46.8361 24.5981
1 40.6427 45.4729 22.4638
1 41.8236 47.6341 22.4738
1 41.7649 49.1173 24.592
1 40.4285 46.8434 24.4857
1 43.1146 45.4098 22.5218
1 44.4504 47.6236 22.5171
1 44.372 49.1045 24.534
1 43.0316 46.9022 24.544
1 45.6205 45.4028 22.4595
1 46.9851 47.687 22.4262
1 46.9506 49.0903 24.5028
1 45.6674 46.863 24.5156
1 48.3073 45.5566 22.4148
1 49.517 47.7367 22.4796
1 49.5443 49.0622 24.5261
1 48.1921 46.9459 24.5516
1 35.4628 49.9977 22.3984
1 37.9291 49.8748 22.4286
1 40.5403 49.9053 22.4998
1 43.083 49.9185 22.4431
1 45.6173 49.9292 22.4276
1 48.1901 49.9238 22.437
1 44.6378 35.9429 28.7247
1 47.2003 34.3285 26.5298
1 47.1595 35.6299 28.6425
1 49.4998 34.4199 26.7108
1 49.7462 35.7862 28.7639
1 39.4591 38.8936 26.6461
1 39.2904 40.248 28.7781
1 42.0463 38.6319 26.5623
1 41.9759 40.3027 28.6903
1 40.6762 38.2452 28.7181
1 43.5822 36.5148 26.5347
1 44.6029 38.7389 26.5448
1 44.5111 40.2611 28.6874
1 43.2401 38.0278 28.6921
1 46.0458 36.5152 26.5512
1 47.0566 38.8224 26.7266
1 47.0586 40.219 28.7848
1 45.8208 38.0401 28.7383
1 48.526 36.6463 26.5339
1 49.5786 38.9955 26.6206
1 49.6808 40.3904 28.7392
1 48.3647 37.94 28.7155
1 37.0587 43.4221 26.5902
1 36.6427 44.6571 28.7047
1 38.2781 41.1471 26.6571
1 39.4661 43.3096 26.7158
1 39.1629 44.6497 28.7712
1 37.8661 42.4436 28.7602
1 40.7349 40.9981 26.6002
1 41.8991 43.1271 26.6397
1 41.7609 44.6277 28.7445
1 40.5386 42.3896 28.6506
1 43.2414 40.9923 26.5448
1 44.5555 43.2493 26.6018
1 44.3819 44.7884 28.7732
1 43.2524 42.5329 28.6958
1 45.801 41.0416 26.598
1 47.0151 43.3616 26.5697
1 47.0402 44.6988 28.7537
1 45.7247 42.4948 28.6948
1 48.2974 41.1739 26.6703
1 49.6023 43.3282 26.7052
1 49.5817 44.7111 28.724
1 48.3048 42.5157 28.7094
1 34.4395 47.792 26.5778
1 34.4039 49.1242 28.6965
1 35.7525 45.6145 26.5643
1 36.8772 47.7548 26.7089
1 36.7675 49.12 28.7675
1 35.3529 46.8272 28.7724
1 38.1693 45.5631 26.6143
1 39.2936 47.7481 26.6542
1 39.2962 49.1368 28.7728
1 37.9176 46.8145 28.7746
1 40.654 45.4399 26.6356
1 41.8955 47.6045 26.6336
1 41.8361 49.1391 28.7224
1 40.4922 46.8191 28.7292
1 43.0704 45.3773 26.6901
1 44.4094 47.6472 26.617
1 44.4167 49.0537 28.7672
1 43.029 46.8432 28.7317
1 45.5992 45.4357 26.7215
1 46.9758 47.6595 26.6349
1 47.0266 49.2045 28.6393
1 45.6806 46.9084 28.7058
1 48.233 45.5227 26.6112
1 49.5984 47.6385 26.6385
1 49.6568 49.1741 28.6849
1 48.3044 46.9135 28.8149
1 35.5898 50.0355 26.6941
1 38.0783 49.9659 26.7038
1 40.5764 49.9346 26.687
1 43.197 49.8809 26.6833
1 45.7317 49.8339 26.5988
1 48.3177 49.8345 26.5329
1 47.6848 34.5228 30.7594
1 50.0603 34.4527 30.8169
1 39.6433 38.8757 30.8232
1 42.052 38.7341 30.8198
1 43.5832 36.6971 30.7092
1 44.6758 38.8237 30.7733
1 46.0672 36.469 30.8475
1 47.2179 38.8265 30.808
1 48.63 36.6958 30.8701
1 49.754 38.8565 30.8062
1 37.0396 43.4062 30.8655
1 38.2197 41.1381 30.8528
1 39.5249 43.1938 30.7898
1 40.7266 40.9962 30.8624
1 42.0472 43.1688 30.7648
1 43.236 40.9253 30.8497
1 44.5732 43.2415 30.842
1 45.8805 41.0065 30.8299
1 47.0925 43.3592 30.8708
1 48.4163 41.0816 30.8035
1 49.5648 43.261 30.8378
1 34.3261 47.8038 30.6878
1 35.6749 45.5241 30.8184
1 36.7393 47.7423 30.8489
1 38.2141 45.5571 30.9455
1 39.2501 47.7161 30.809
1 40.6234 45.4866 30.9217
1 41.8076 47.6369 30.7807
1 43.1833 45.3976 30.7911
1 44.3412 47.5755 30.8415
1 45.7325 45.4803 30.8043
1 47.0259 47.7122 30.7387
1 48.4137 45.468 30.8867
1 49.5771 47.7287 30.8458
1 35.4381 50.0994 30.8458
1 37.9739 49.9526 30.8547
1 40.5901 49.9086 30.8535
1 43.1382 49.8631 30.7681
1 45.7155 49.8184 30.8415
1 48.2545 50.0086 30.7945
1 44.6758 35.918 32.8967
1 47.2997 35.6728 32.9292
1 49.8348 35.7903 32.897
1 39.3137 40.2042 32.9341
1 41.9374 40.3776 33.0032
1 40.7388 38.2255 32.9284
1 44.4588 40.1484 32.8885
1 43.2623 37.9887 32.8687
1 47.0618 40.2895 32.8711
1 45.9063 38.0214 32.7861
1 49.6736 40.2177 32.9262
1 48.2788 38.0155 32.9062
1 36.6225 44.6356 32.9394
1 39.2186 44.6232 32.9605
1 38.0158 42.4177 33.0445
1 41.7232 44.6192 33.0218
1 40.5569 42.4237 32.9182
1 44.4258 44.6511 32.8984
1 43.1062 42.4419 32.9174
1 46.9096 44.6731 32.949
1 45.6736 42.3979 32.8608
1 49.5475 44.7059 32.8788
1 48.2813 42.4519 32.9642
1 34.3382 49.2349 32.8353
1 36.754 49.1573 32.9016
1 35.2754 46.8783 32.9089
1 39.2744 49.1368 32.9053
1 37.9063 46.8774 32.9732
1 41.8913 49.1391 32.8469
1 40.5052 46.9212 32.9753
1 44.4614 49.0604 32.9235
1 42.9951 46.8727 32.9044
1 47.0267 49.1192 32.9109
1 45.6744 46.8884 32.9116
1 49.5094 49.2064 32.8412
1 48.2117 46.845 32.9319
1 44.789 35.9326 37.0841
1 47.1268 34.3581 35.0128
1 47.37 35.7758 37.0226
1 49.5198 34.4524 35.047
1 49.7474 35.8032 37.1575
1 39.6708 38.8257 35.0251
1 39.342 40.2345 37.1528
1 42.0684 38.6724 35.018
1 41.9031 40.2957 37.1723
1 40.6877 38.2573 37.0889
1 43.6437 36.6023 34.9892
1 44.7148 38.6556 34.977
1 44.6188 40.1821 37.1236
1 43.2405 37.9657 37.0095
1 46.0758 36.5699 34.9588
1 47.1564 38.8685 35.0473
1 47.1379 40.2647 37.1371
1 45.8274 38.0743 37.1168
1 48.5636 36.5807 34.8961
1 49.6663 38.9076 34.9994
1 49.6483 40.3092 37.0813
1 48.3751 38.0111 37.0288
1 37.1027 43.3412 35.1198
1 36.6888 44.6611 37.1431
1 38.4092 41.1429 35.0718
1 39.6184 43.2125 35.0764
1 39.1826 44.6229 37.1637
1 38.0486 42.4348 37.1673
1 40.8337 40.9567 35.0533
1 41.9963 43.1502 35.0426
1 41.9053 44.5413 37.1173
1 40.6184 42.4199 37.1649
1 43.2825 40.9127 35.0665
1 44.5381 43.0987 35.0275
1 44.4313 44.5996 37.1565
1 43.3058 42.3611 37.0671
1 45.8041 40.9755 35.0316
1 47.0604 43.2798 35.0683
1 47.1015 44.7221 37.1178
1 45.9026 42.5453 37.1191
1 48.3764 41.0823 35.0175
1 49.6838 43.2915 34.9914
1 49.5741 44.8002 37.119
1 48.4603 42.4711 37.1032
1 34.4264 47.9777 34.9874
1 34.4029 49.1473 37.1752
1 35.7517 45.6464 35.03
1 36.9485 47.8174 35.0821
1 36.7287 49.0752 37.1739
1 35.3775 46.8852 37.1102
1 38.2543 45.4975 35.0498
1 39.4297 47.7343 35.0441
1 39.2313 49.1096 37.1239
1 37.9591 46.8494 37.1857
1 40.703 45.4891 35.1124
1 41.833 47.7417 35.0267
1 41.8625 49.0519 37.1714
1 40.5058 46.7862 37.1195
1 43.1665 45.4923 35.0924
1 44.5057 47.6274 34.9594
1 44.4273 49.0481 37.1091
1 43.1065 46.8903 37.053
1 45.6598 45.3488 35.0655
1 47.005 47.6549 34.9467
1 47.0318 49.1533 37.1063
1 45.7519 46.9023 37.0464
1 48.2725 45.5086 35.0412
1 49.5556 47.7828 34.8969
1 49.5204 49.1548 37.0189
1 48.3014 47.0381 37.0477
1 35.4839 50.0596 35.0061
1 37.9951 50.024 35.035
1 40.6172 49.8594 35.062
1 43.1181 49.8677 34.9957
1 45.7373 49.9451 35.0308
1 48.2057 49.9076 35.0214
1 44.7609 35.793 41.4312
1 47.7233 34.4867 39.1394
1 47.3517 35.5821 41.2828
1 50.1014 34.4827 39.1692
1 49.8686 35.8941 41.3053
1 39.7088 38.8943 39.2246
1 39.3673 40.2648 41.3746
1 42.1245 38.5887 39.2412
1 42.0444 40.2394 41.3817
1 40.7203 38.2323 41.3629
1 43.6824 36.5558 39.2116
1 44.7584 38.7268 39.2244
1 44.5914 40.1643 41.257
1 43.2601 37.8539 41.3438
1 46.0957 36.4402 39.1919
1 47.1632 38.6917 39.2528
1 47.1762 40.2037 41.3986
1 45.8303 37.9622 41.3668
1 48.6121 36.6267 39.2445
1 49.7066 39.0157 39.2054
1 49.6467 40.2614 41.4083
1 48.4102 38.0196 41.3081
1 37.0779 43.3422 39.2819
1 36.6916 44.6913 41.3552
1 38.4404 41.1642 39.3358
1 39.5785 43.1972 39.2872
1 39.2583 44.5526 41.3259
1 38.0202 42.4967 41.3528
1 40.8804 40.8912 39.3236
1 42.0741 43.0379 39.222
1 41.8437 44.6426 41.3137
1 40.6316 42.3481 41.3889
1 43.3562 40.8638 39.1406
1 44.5348 43.1376 39.2317
1 44.3971 44.6331 41.2722
1 43.1682 42.4235 41.4087
1 45.8918 41.0359 39.2342
1 47.1159 43.2315 39.2263
1 46.9644 44.7075 41.289
1 45.9015 42.4743 41.3226
1 48.3763 41.0635 39.2229
1 49.5917 43.3324 39.2082
1 49.4653 44.7625 41.2405
1 48.4372 42.4536 41.2716
1 34.5076 47.7849 39.2558
1 34.3581 49.0652 41.3981
1 35.8699 45.6069 39.2455
1 36.9858 47.7755 39.2452
1 36.7417 49.1363 41.3768
1 35.5004 46.8946 41.3539
1 38.2652 45.5215 39.3598
1 39.3633 47.6905 39.3001
1 39.3529 49.1253 41.3278
1 37.9153 46.8601 41.3607
1 40.7519 45.3919 39.2624
1 41.8566 47.6087 39.1822
1 41.8583 49.0104 41.3302
1 40.5279 46.8254 41.2479
1 43.1293 45.3209 39.1979
1 44.4919 47.5398 39.2405
1 44.3415 49.049 41.2307
1 43.2032 46.8637 41.2852
1 45.8165 45.4458 39.2251
1 47.114 47.6184 39.1499
1 47.0284 49.0209 41.2907
1 44.519 47.553 43.3589
1 50.7749 45.4859 39.2116
1 49.5949 47.7009 39.2291
1 49.5807 49.2574 41.3277
1 45.8384 46.867 41.28
1 35.5588 50.0078 39.306
1 38.0777 49.9191 39.3004
1 40.5713 49.8453 39.2023
1 43.112 49.8081 39.0961
1 45.6541 49.7176 39.2513
1 48.2498 49.8704 39.2227
1 47.7958 34.5041 43.477
1 50.1443 34.4982 43.335
1 39.6716 38.9748 43.4597
1 42.1434 38.6716 43.4118
1 43.6553 36.5879 43.4993
1 44.7644 38.6974 43.4223
1 46.1222 36.4662 43.4576
1 47.1979 38.7777 43.4515
1 48.6365 36.6646 43.3329
1 49.7484 38.8425 43.4821
1 37.0567 43.4037 43.3818
1 38.3599 41.1318 43.4202
1 39.5063 43.1649 43.5014
1 40.8831 41.0206 43.5041
1 42.0366 43.1548 43.4611
1 43.3219 40.8983 43.4985
1 44.4885 43.259 43.3926
1 45.7822 40.9375 43.4174
1 47.1181 43.2251 43.4218
1 48.4023 41.0518 43.4095
1 49.7238 43.313 43.3169
1 34.3749 47.8555 43.5296
1 35.7745 45.648 43.4423
1 36.9189 47.7944 43.4668
1 38.2037 45.4822 43.4254
1 39.3971 47.613 43.4537
1 40.6295 45.4066 43.3915
1 41.89 47.5721 43.3996
1 43.2207 45.4184 43.3493
1 45.7977 46.8893 45.4547
1 45.8149 45.4609 43.3291
1 47.1039 47.6684 43.3554
1 48.2468 45.4924 43.3555
1 49.5674 47.6493 43.3773
1 35.5603 49.9754 43.5398
1 38.1591 49.8556 43.5216
1 40.7312 49.8392 43.3786
1 43.154 49.7996 43.4212
1 45.7698 49.7965 43.4157
1 48.274 49.8253 43.377
1 44.7759 35.9686 45.5402
1 47.4392 35.731 45.5291
1 49.8456 35.6782 45.434
1 39.396 40.2927 45.639
1 42.0873 40.2871 45.5687
1 40.766 38.2831 45.6329
1 44.6086 40.1892 45.4697
1 43.3259 37.9598 45.5627
1 47.1334 40.2835 45.5378
1 45.9479 37.9775 45.5283
1 49.7076 40.2903 45.5229
1 48.4147 37.9909 45.482
1 36.7074 44.5946 45.5569
1 39.2883 44.6107 45.5706
1 38.0009 42.4124 45.489
1 41.9766 44.6127 45.5585
1 40.6795 42.3971 45.5394
1 44.518 44.6067 45.4524
1 43.2665 42.4509 45.5236
1 47.1749 44.6887 45.4856
1 45.835 42.4232 45.4375
1 49.7359 44.7174 45.542
1 48.4517 42.4483 45.4722
1 34.4528 49.1702 45.6202
1 36.8304 49.2073 45.6061
1 35.4122 46.8715 45.52
1 39.3452 48.9906 45.6339
1 37.9834 46.7828 45.6269
1 41.9378 48.8647 45.5679
1 40.5324 46.8262 45.4693
1 44.6015 49.1273 45.4503
1 43.282 46.7691 45.5337
1 48.397 51.3725 45.4555
1 47.0781 49.0328 45.5228
1 49.7097 49.0212 45.4258
1 48.2973 46.8726 45.4237
1 44.802 35.8095 49.8194
1 47.7612 34.4867 47.5131
1 47.3649 35.5804 49.7442
1 50.1518 34.5121 47.6104
1 49.7809 35.8064 49.6106
1 39.6119 38.8949 47.6805
1 39.4802 40.3696 49.8112
1 42.234 38.6539 47.7305
1 42.2188 40.1856 49.7971
1 40.7939 38.1849 49.7331
1 43.7341 36.6419 47.6898
1 44.8174 38.7206 47.6629
1 44.7467 40.236 49.7483
1 43.5333 37.9749 49.8918
1 46.1553 36.4601 47.6765
1 47.2718 38.7092 47.6357
1 47.2376 40.2488 49.6565
1 46.0289 37.9824 49.6938
1 48.6733 36.6749 47.627
1 49.8411 38.8826 47.614
1 49.8771 40.2271 49.7068
1 48.5382 37.9424 49.6806
1 36.9867 43.1916 47.6272
1 36.8003 44.5999 49.7727
1 38.1444 40.9411 47.673
1 39.5973 43.0868 47.6915
1 39.5096 44.6225 49.7716
1 38.1331 42.4206 49.7929
1 40.932 40.8918 47.7384
1 42.0577 43.2353 47.6173
1 42.0168 44.629 49.7909
1 40.8456 42.4101 49.7794
1 43.4874 40.9657 47.6571
1 44.5631 43.2061 47.6315
1 44.6257 44.6283 49.6873
1 43.4618 42.3905 49.741
1 45.9218 40.9782 47.5493
1 47.1991 43.206 47.4993
1 47.1871 44.6935 49.6072
1 45.95 42.5089 49.7488
1 48.4607 40.9554 47.6456
1 49.7306 43.2233 47.5921
1 49.759 44.7846 49.6738
1 48.5378 42.5189 49.6308
1 34.4564 47.7605 47.7373
1 34.5797 49.0286 49.901
1 35.663 45.448 47.6801
1 36.9411 47.6497 47.6834
1 36.9761 49.0158 49.763
1 35.521 46.8024 49.7611
1 38.1911 45.3364 47.8217
1 39.3771 47.5995 47.5736
1 39.4858 49.0861 49.7508
1 38.1327 46.8428 49.8694
1 40.681 45.3897 47.6327
1 41.8978 47.5457 47.646
1 42.0709 48.985 49.7684
1 40.7129 46.8943 49.816
1 43.2653 45.3811 47.6167
1 44.4965 47.623 47.576
1 44.6308 49.1302 49.6181
1 43.314 46.8361 49.7303
1 45.8243 45.433 47.5701
1 47.1578 47.7087 47.6649
1 47.2167 49.1956 49.6408
1 45.8537 46.9119 49.708
1 48.352 45.4861 47.6031
1 49.6595 47.6905 47.5538
1 51.0609 49.897 51.7186
1 48.4377 47.053 49.7207
1 35.5464 50.0458 47.6924
1 38.2094 49.8256 47.6596
1 40.7251 49.7741 47.7027
1 43.2776 49.8333 47.6144
1 45.8782 49.9184 47.5827
1 49.8048 49.2158 49.6571
1 44.7924 35.7428 54.0693
1 48.7643 34.0978 51.3119
1 47.369 35.8315 53.9713
1 51.1631 34.1757 50.9707
1 49.9201 35.9117 53.8691
1 39.6728 38.8264 51.7767
1 39.6727 40.1124 53.9476
1 42.161 38.548 51.9633
1 42.1675 40.2974 53.9036
1 40.8373 37.9871 53.9078
1 43.7756 36.5087 51.9263
1 44.7644 38.7823 51.8899
1 43.4713 38.1373 54.0371
1 42.3786 36.0384 54.0083
1 46.0938 36.3957 51.89
1 47.2584 38.6563 51.8036
1 47.2616 40.1572 53.9849
1 46.0152 37.9195 54.0642
1 48.6041 36.4543 51.8898
1 49.8657 38.7943 51.8002
1 49.7842 40.2583 53.9169
1 48.5821 38.0401 53.8224
1 37.1118 43.1011 51.8681
1 36.9808 44.3395 54.062
1 38.3593 40.9172 51.9805
1 39.5737 43.0938 51.8362
1 39.5033 44.6226 53.9623
1 38.3543 42.2496 53.9684
1 41.0634 40.8505 51.8063
1 42.1237 43.1065 51.8271
1 42.1043 44.6906 53.934
1 40.7821 42.4084 53.8658
1 43.5318 40.9884 51.9195
1 44.7574 43.2087 51.8026
1 44.6825 44.6878 53.8258
1 43.5698 42.5275 53.9839
1 46.0626 40.9292 51.9128
1 47.2617 43.1592 51.779
1 46.0183 42.5054 53.9798
1 44.7307 40.2268 53.9785
1 48.5302 40.8849 51.8188
1 49.8767 43.2083 51.6919
1 49.885 44.6171 53.7997
1 48.513 42.4625 53.8382
1 34.6159 47.6198 51.9087
1 34.6417 48.9701 54.02
1 35.8156 45.3525 51.9188
1 37.0472 47.6258 51.9074
1 37.0837 49.0242 53.9674
1 35.7376 46.6541 54.0794
1 38.2254 45.2905 51.9251
1 39.563 47.5554 51.9101
1 39.5378 49.1352 54.0031
1 38.2366 46.7766 53.937
1 40.8113 45.3744 51.8249
1 42.0553 47.5644 51.8365
1 42.1213 49.1534 53.9435
1 40.818 46.9404 53.9302
1 43.4379 45.3887 51.8181
1 44.6294 47.6102 51.7041
1 44.6738 49.0718 53.8036
1 43.4347 46.9445 53.925
1 45.9909 45.4308 51.7735
1 47.1348 47.6867 51.7589
1 47.1781 49.0499 53.8776
1 46.0589 46.9195 53.8145
1 48.4176 45.4598 51.6864
1 49.7662 47.6392 51.7602
1 48.5743 46.8448 53.8431
1 47.2441 44.7413 53.8658
1 35.7185 49.857 51.9361
1 38.2566 49.7954 51.8171
1 40.8283 49.7299 51.8671
1 43.39 49.7222 51.8485
1 45.9372 49.8021 51.68
1 48.4865 49.7959 51.8079
1 44.8572 35.9881 58.2108
1 48.7733 33.9129 53.6981
1 47.4024 35.7085 58.1253
1 49.924 34.3861 56.03
1 49.8636 35.8448 58.2112
1 39.6556 38.6441 56.0706
1 39.7613 39.9868 58.1583
1 42.0834 38.9232 55.9433
1 42.179 40.2768 58.1222
1 40.9313 37.8602 58.1575
1 41.4431 36.6288 56.059
1 43.7709 36.5429 56.0991
1 44.7102 40.3203 58.1081
1 43.2471 37.9515 58.1294
1 46.2384 36.412 56.1548
1 47.3122 38.7667 56.077
1 47.2386 40.2743 58.1372
1 45.962 38.0945 58.1531
1 48.7098 36.584 56.1058
1 49.8766 38.7024 56.0246
1 49.7966 40.2028 58.097
1 48.5043 38.0489 58.2093
1 37.2471 43.035 56.121
1 37.113 44.4707 58.19
1 38.4402 40.7902 56.1212
1 39.6418 43.2974 56.0603
1 39.5821 44.6964 58.0738
1 38.4872 42.2632 58.2398
1 40.8555 41.0786 56.0674
1 42.1734 43.2046 55.9643
1 42.2269 44.681 58.0994
1 40.8608 42.5169 58.1221
1 43.3902 41.0171 56.0521
1 44.6748 43.2234 56.0282
1 44.7548 44.6914 58.1921
1 43.4825 42.5652 58.1465
1 44.6829 38.8316 56.1203
1 45.9993 41.0763 56.1006
1 47.2137 44.6321 58.1198
1 46.0156 42.5108 58.1397
1 48.5148 40.9524 56.0036
1 49.8225 43.1545 55.914
1 49.8105 44.7151 58.0566
1 48.5438 42.4815 58.0772
1 34.6297 47.3554 56.2392
1 34.7899 48.8441 58.3085
1 35.9752 45.2829 56.1729
1 37.0799 47.6719 56.0394
1 37.0959 49.0484 58.2337
1 35.9255 46.653 58.2845
1 38.2823 45.4837 56.0603
1 39.5514 47.6752 56.0529
1 39.6088 49.1625 58.1218
1 38.3702 46.8786 58.1702
1 40.8883 45.4579 55.9832
1 42.078 47.6707 55.9757
1 42.1973 49.0178 58.0876
1 40.8763 46.8233 58.1252
1 43.455 45.4126 55.9385
1 44.7193 47.6224 55.9662
1 44.7114 49.0696 58.0484
1 43.398 46.8376 57.9967
1 46.0359 45.4086 56.0782
1 47.2527 47.6366 55.9227
1 47.2314 49.137 58.0366
1 46.0382 46.9078 58.1564
1 47.1901 43.2065 55.9621
1 48.5485 45.4103 55.9301
1 49.7067 49.0445 58.0064
1 48.5277 46.9177 58.0425
1 35.701 49.8483 56.1647
1 38.2823 49.8328 56.116
1 40.8729 49.8163 56.0392
1 43.4258 49.8491 55.9429
1 45.9956 49.9384 55.9213
1 48.4986 49.8721 55.9671
1 44.8481 36.0664 62.3742
1 47.6384 34.5296 60.3621
1 47.4403 35.7519 62.4863
1 50.03 34.3347 60.1856
1 49.8884 35.7286 62.3807
1 39.7895 38.6267 60.2244
1 39.7184 40.122 62.3831
1 42.1521 38.8544 60.2376
1 42.0907 40.2573 62.3641
1 40.7875 37.9796 62.3151
1 43.6452 36.6634 60.2192
1 44.7959 38.8349 60.1498
1 44.6771 40.2464 62.3
1 43.3247 38.0342 62.3291
1 46.1551 36.537 60.2799
1 47.3295 38.8996 60.266
1 47.3157 40.356 62.3287
1 46.0221 38.1851 62.4055
1 48.7551 36.7217 60.3478
1 49.8893 38.8971 60.2508
1 49.8484 40.2944 62.284
1 48.5258 38.0796 62.4399
1 37.3087 42.9609 60.2747
1 37.1556 44.5131 62.3334
1 38.5548 40.8037 60.3309
1 39.7026 43.3212 60.3069
1 39.5698 44.8054 62.3527
1 38.4042 42.3643 62.3595
1 40.9247 41.0572 60.2322
1 42.1828 43.1481 60.1996
1 42.1123 44.7261 62.3179
1 40.8954 42.5196 62.3417
1 43.4069 41.0408 60.1197
1 44.7395 43.2112 60.2244
1 44.6876 44.6958 62.3219
1 43.422 42.5035 62.3626
1 45.9794 41.0493 60.2593
1 47.2845 43.1492 60.2144
1 47.3232 44.7255 62.2701
1 45.8907 42.5223 62.3473
1 48.5953 41.0461 60.1779
1 49.8527 43.2692 60.1019
1 49.8876 44.7977 62.2372
1 48.5262 42.4837 62.2739
1 34.6026 47.3882 60.3574
1 34.6843 48.9083 62.3015
1 35.9331 45.2145 60.261
1 37.1093 47.715 60.3297
1 37.0783 49.2227 62.4075
1 35.9116 46.6819 62.3543
1 38.3914 45.5352 60.2647
1 39.7002 47.6919 60.2424
1 39.6646 49.2068 62.3069
1 38.3173 46.9656 62.3773
1 40.9594 45.4523 60.169
1 42.1916 47.6005 60.1796
1 42.1949 49.235 62.2703
1 40.9829 46.9876 62.3099
1 43.4275 45.4406 60.1774
1 44.7617 47.639 60.1709
1 44.7028 49.2207 62.3301
1 43.4298 47.0226 62.2267
1 46.0224 45.3864 60.2923
1 47.247 47.6884 60.1898
1 47.3453 49.2355 62.2239
1 46.0665 47.007 62.3674
1 48.5626 45.4452 60.0836
1 49.8845 47.6401 60.1968
1 49.7972 49.1034 62.2162
1 48.5004 46.9787 62.2305
1 35.9304 49.9044 60.3373
1 38.3862 50.0238 60.3103
1 40.925 49.8564 60.164
1 43.4976 49.8375 60.2082
1 46.047 49.9195 60.1013
1 48.5203 49.8939 60.0701
1 44.7686 36.0643 66.5675
1 47.3183 34.4215 64.5014
1 47.4208 35.8388 66.5645
1 49.7145 34.4271 64.4516
1 49.8528 35.8341 66.5154
1 39.6485 38.6275 64.4147
1 39.7181 40.1412 66.5332
1 42.044 38.8261 64.49
1 42.1728 40.405 66.5746
1 40.783 37.9559 66.6084
1 43.6341 36.6532 64.515
1 44.748 38.8614 64.3551
1 44.7127 40.3708 66.545
1 43.3051 38.1548 66.6066
1 46.0819 36.652 64.5654
1 47.3604 38.8222 64.441
1 47.373 40.4007 66.4981
1 45.9463 38.2228 66.4508
1 48.7596 36.6835 64.567
1 49.914 38.9281 64.4158
1 49.8523 40.3517 66.5076
1 48.5093 38.1976 66.5512
1 37.2629 43.0404 64.3925
1 37.1796 44.5352 66.4599
1 38.5285 40.82 64.4852
1 39.6358 43.3722 64.4517
1 39.5878 44.7608 66.5832
1 38.3981 42.3458 66.5163
1 40.8966 41.072 64.5262
1 42.2237 43.2846 64.447
1 42.1652 44.7519 66.6218
1 40.8979 42.6278 66.5108
1 43.4985 41.0536 64.4005
1 44.7231 43.2305 64.397
1 44.776 44.6521 66.5226
1 43.374 42.6337 66.5564
1 45.9913 41.0138 64.3822
1 47.2636 43.2829 64.3813
1 47.3757 44.8093 66.4877
1 46.0333 42.5046 66.5399
1 48.5618 41.1041 64.3402
1 49.8499 43.3668 64.3619
1 49.8528 44.806 66.4683
1 48.5358 42.6608 66.4688
1 34.7893 47.4472 64.4035
1 34.7225 48.9641 66.4244
1 35.9742 45.3629 64.3877
1 37.1001 47.7729 64.4162
1 37.1515 49.1833 66.4907
1 35.9674 46.687 66.4879
1 38.3888 45.5125 64.4432
1 39.6811 47.7369 64.5023
1 39.732 49.2216 66.5177
1 38.445 46.9984 66.4994
1 40.9263 45.5314 64.4358
1 42.1733 47.7214 64.4072
1 42.2294 49.1954 66.4668
1 40.9186 46.9922 66.6764
1 43.5203 45.4381 64.378
1 44.6757 47.7032 64.343
1 44.733 49.2057 66.4824
1 43.41 47.0214 66.5401
1 46.0687 45.5373 64.4118
1 47.2749 47.7752 64.39
1 47.2008 49.1924 66.4484
1 45.9986 46.9411 66.492
1 48.6021 45.5065 64.279
1 49.8114 47.718 64.2723
1 49.841 49.2835 66.4379
1 48.6095 47.06 66.4542
1 35.7098 50.0308 64.3237
1 38.4091 49.9441 64.3608
1 40.9918 50.0087 64.3717
1 43.5203 49.9329 64.3419
1 46.0049 49.9944 64.3135
1 48.5931 49.947 64.2788
1 44.8716 36.0265 70.7845
1 47.4963 34.5375 68.6792
1 47.3659 35.8309 70.7463
1 49.8562 34.7128 68.685
1 49.9822 35.9642 70.8051
1 39.6206 38.7506 68.6863
1 39.6928 40.2676 70.7147
1 42.0157 38.8343 68.6584
1 42.1799 40.4846 70.8673
1 40.916 38.2011 70.8385
1 43.6802 36.697 68.684
1 44.7942 38.906 68.6749
1 44.7746 40.4515 70.8119
1 43.3891 38.1517 70.7747
1 46.1307 36.691 68.5791
1 47.3408 38.9223 68.5915
1 47.3287 40.3638 70.6869
1 46.0993 38.1625 70.7509
1 48.7885 36.8114 68.6486
1 49.8635 39.0667 68.6027
1 49.8771 40.3884 70.6538
1 48.5954 38.128 70.6487
1 37.1395 43.141 68.6554
1 37.1771 44.6557 70.6742
1 38.4088 40.9716 68.6375
1 39.5511 43.408 68.5896
1 39.6551 44.8174 70.7714
1 38.3915 42.3967 70.8005
1 40.8641 41.161 68.731
1 42.2045 43.3865 68.6826
1 42.2972 44.8593 70.8302
1 40.9347 42.6986 70.7893
1 43.4311 41.0849 68.6752
1 44.7342 43.2111 68.6277
1 44.8417 44.8605 70.7145
1 43.5139 42.7401 70.7961
1 45.9722 41.0618 68.5933
1 47.22 43.2992 68.5002
1 47.3908 44.8536 70.7383
1 46.046 42.5038 70.6834
1 48.6044 41.2369 68.4893
1 49.8868 43.4507 68.5514
1 49.835 44.9135 70.6364
1 48.6368 42.645 70.6228
1 34.8381 47.6587 68.4586
1 34.9337 49.0599 70.6012
1 35.9176 45.3961 68.5988
1 37.1781 47.7813 68.5071
1 37.2927 49.2005 70.5562
1 36.035 46.8143 70.5807
1 38.3571 45.6564 68.5989
1 39.6873 47.7858 68.6138
1 39.7319 49.2487 70.7049
1 38.4901 47.0114 70.6548
1 40.9212 45.5723 68.7196
1 42.2432 47.8095 68.6037
1 42.2563 49.3387 70.7549
1 41.1158 47.0444 70.6681
1 43.5031 45.5406 68.5751
1 44.7552 47.8339 68.6027
1 44.8204 49.3976 70.7197
1 43.6244 47.1003 70.736
1 46.0619 45.5269 68.5638
1 47.2566 47.8062 68.5535
1 47.3392 49.314 70.6679
1 46.1204 47.1545 70.6858
1 48.61 45.6257 68.5385
1 49.8364 47.7738 68.4967
1 49.8914 49.2605 70.566
1 48.6173 47.0273 70.6701
1 35.7974 49.9761 68.5486
1 38.3866 50.0667 68.5789
1 40.9079 50.0101 68.6801
1 43.5066 50.0135 68.5854
1 46.0206 50.0459 68.5525
1 48.5757 49.9635 68.5167
1 44.9429 36.1097 74.9739
1 47.6187 34.6647 72.8692
1 47.4002 35.8737 74.9652
1 49.9412 34.4346 72.8638
1 49.9503 35.9096 74.8914
1 39.9196 38.9732 72.9733
1 39.7207 40.4308 75.2029
1 42.3594 38.9878 72.9523
1 42.2611 40.4705 74.9582
1 41.0862 38.4258 75.1828
1 43.7538 36.837 72.8606
1 44.7877 38.9947 72.8497
1 44.7934 40.4542 74.9558
1 43.4632 38.1981 75.0519
1 46.2248 36.7349 72.8764
1 47.3847 38.9922 72.8697
1 47.3655 40.4767 74.913
1 46.0514 38.2574 74.85
1 48.7469 36.7088 72.806
1 49.9435 38.9644 72.7163
1 49.9001 40.443 74.7965
1 48.6018 38.0806 74.8198
1 37.3309 43.3479 72.804
1 37.2179 44.6601 74.9207
1 38.6075 41.1291 73.0034