5538
Atoms. Timestep: 70000
1 47.0352 40.8755 8.86178
1 47.739 38.4162 9.03292
1 46.5502 37.0672 10.7439
1 49.2718 37.3611 7.54926
1 48.6487 36.427 9.91709
1 42.2981 39.8628 8.83216
1 40.3819 41.4931 9.12253
1 43.2664 39.5741 11.0606
1 42.7781 42.2024 9.03279
1 44.602 40.5988 8.16639
1 45.377 42.7716 8.7492
1 41.963 41.0164 12.497
1 46.1398 39.9008 11.8994
1 47.5858 43.0564 9.85757
1 45.4771 39.0981 9.83974
1 48.2243 39.9342 10.7696
1 47.2773 40.7017 13.9232
1 44.7358 37.9492 12.0275
1 45.762 35.8256 12.7
1 49.8222 36.9767 13.4151
1 47.7489 38.1292 12.4162
1 48.2225 35.7084 12.2543
1 39.5141 46.1407 9.80078
1 36.5835 44.315 9.74044
1 38.4251 42.7547 8.78756
1 39.8932 41.8999 11.5273
1 40.4014 44.7361 12.2643
1 38.8536 43.9865 10.7235
1 40.8148 39.7525 10.7337
1 41.8879 43.09 11.2594
1 41.9307 45.7733 10.2897
1 40.7569 43.8867 9.17828
1 44.6917 41.4936 10.6146
1 47.1511 44.0229 14.1627
1 43.8848 44.0235 10.2992
1 43.937 42.5461 12.5669
1 45.4185 42.1595 14.433
1 47.96 44.4785 11.8296
1 46.1921 45.0235 9.85424
1 46.5488 42.3593 12.1832
1 49.2983 40.1007 12.8513
1 50.2778 44.2318 11.665
1 48.4996 46.1924 9.9494
1 48.9767 42.1578 11.6968
1 37.8916 47.9546 10.0875
1 38.8739 50.185 9.79902
1 39.088 44.7859 7.70765
1 35.8965 46.5605 10.5869
1 34.9444 45.8721 12.7784
1 37.3329 46.1844 8.59693
1 37.2297 45.1963 12.047
1 40.3949 48.4836 10.4386
1 38.7996 49.3476 12.2193
1 39.0404 46.8528 12.0108
1 41.1782 45.8144 14.2636
1 43.1256 48.7762 11.5697
1 42.3545 52.539 11.898
1 41.5177 47.1885 12.2466
1 42.9386 45.1399 12.3837
1 44.3694 48.0856 8.05877
1 44.6006 49.5495 9.85862
1 42.3904 47.8853 9.41417
1 44.2148 46.3742 9.77626
1 45.4736 44.5562 12.1745
1 46.1619 49.0341 11.6086
1 46.2091 47.5747 9.62308
1 49.4741 44.9819 13.9654
1 49.5791 46.5635 12.0303
1 49.6465 49.1793 14.1519
1 46.9764 46.6892 11.8714
1 36.4004 48.7512 11.7621
1 35.9584 50.2832 13.5729
1 41.1611 50.2486 11.9786
1 43.8612 51.8941 10.0543
1 44.6057 47.017 12.0101
1 48.4837 48.5998 12.1353
1 41.76 34.9169 17.8743
1 47.0832 32.5335 17.4363
1 45.0888 34.1338 17.3404
1 49.358 33.3999 16.7281
1 49.3843 35.2955 15.2992
1 40.3449 36.8445 17.3337
1 39.7326 39.158 16.9932
1 41.6666 37.2227 15.4109
1 40.5635 39.2718 14.7183
1 42.5248 35.9713 20.0164
1 43.352 35.72 16.2171
1 42.5551 38.6091 13.429
1 44.2845 40.2396 13.4251
1 43.572 36.4215 13.7139
1 43.5609 33.8591 19.2574
1 46.1185 37.2508 16.3588
1 45.9421 38.4194 14.046
1 45.3964 35.2884 15.0305
1 47.2138 35.0063 16.6273
1 48.6326 37.3059 16.6245
1 48.5655 38.6171 14.6575
1 47.4827 36.5156 14.4432
1 35.3338 43.5962 16.172
1 38.5125 43.3446 13.2005
1 37.2902 39.0979 17.3146
1 38.4211 42.5753 15.7201
1 38.8482 45.5216 14.0882
1 36.4136 41.3433 16.5521
1 38.2934 40.2094 15.275
1 40.8807 42.4251 16.089
1 41.9084 43.3401 13.9927
1 40.0536 41.5907 13.9759
1 42.264 39.291 16.7383
1 43.4751 42.6824 16.1448
1 44.0807 44.3474 14.3287
1 42.3874 40.8094 14.8818
1 44.0091 38.0585 15.517
1 47.2601 42.0709 16.0966
1 45.5775 43.8741 16.2256
1 44.5045 40.451 15.9561
1 46.7532 39.6682 16.0161
1 48.7715 44.0157 16.1544
1 51.8059 44.4878 13.5032
1 49.0834 42.3496 14.1909
1 34.0983 45.2488 14.9391
1 33.6319 47.4746 15.7713
1 36.1129 43.9886 13.817
1 35.8929 46.6599 15.6964
1 35.7576 49.0251 15.8695
1 34.8496 48.0202 13.6936
1 37.3311 44.7369 15.7433
1 38.3058 47.089 15.9712
1 37.8606 49.2022 14.4094
1 37.0645 47.1364 13.5991
1 39.8667 44.6123 16.1461
1 40.7834 46.9888 16.3208
1 42.1878 48.9116 13.9271
1 39.9849 47.8993 14.132
1 42.317 44.7951 16.2282
1 42.8677 48.0916 16.1329
1 44.5685 48.8756 13.6824
1 43.3451 46.8342 14.1281
1 44.3784 46.1269 16.2348
1 46.044 47.8113 15.5948
1 46.9975 49.4332 13.935
1 45.7704 46.0645 14.0213
1 47.0573 45.7019 16.1391
1 49.6009 46.4394 15.9717
1 48.2719 48.638 16.0522
1 48.192 47.0559 14.1062
1 33.7094 49.7806 16.642
1 37.4931 50.6484 16.2848
1 39.4491 49.2464 16.2988
1 41.737 50.2078 16.1102
1 44.735 49.5021 16.191
1 46.8717 50.8209 16.1749
1 44.9035 35.4817 20.3976
1 46.016 33.4806 19.4393
1 47.2462 35.0836 20.7675
1 48.3891 34.2119 18.7476
1 49.8169 34.9508 20.714
1 38.6933 38.0389 19.0562
1 39.3721 40.1174 20.1624
1 41.1034 38.6864 18.9534
1 42.0382 40.3654 20.2421
1 40.4968 37.2384 20.6747
1 42.6345 37.2213 17.9299
1 44.6322 38.7734 17.8989
1 44.6515 40.2713 20.1265
1 43.358 38.1855 20.0933
1 44.888 36.3287 18.1981
1 47.0769 38.8161 18.1842
1 47.0866 40.2514 20.2255
1 45.7807 37.8817 20.1471
1 47.2774 36.4887 18.6436
1 49.5483 38.9897 18.1989
1 49.6504 40.2658 20.3229
1 48.3293 38.0552 20.2915
1 37.0487 43.2577 17.9566
1 36.7141 44.5068 19.9506
1 38.4964 41.1551 17.9902
1 39.5572 43.3143 18.0592
1 39.2235 44.643 20.2272
1 38.0798 42.375 20.0667
1 40.9018 41.0599 18.1682
1 42.1336 43.2277 18.1569
1 41.8433 44.6124 20.3366
1 40.5929 42.4286 20.2823
1 43.3798 41.028 18.1448
1 44.631 43.2422 18.2667
1 44.4718 44.5793 20.4339
1 43.2455 42.4482 20.3049
1 45.8508 41.074 17.9805
1 47.1488 43.3574 18.2136
1 47.0035 44.7305 20.3825
1 45.8842 42.4406 20.2481
1 48.2973 41.1072 18.2965
1 49.7008 43.2736 18.3309
1 49.5767 44.8415 20.3773
1 48.3515 42.5327 20.3711
1 34.3247 47.7584 18.078
1 34.3779 49.0365 20.1545
1 35.6646 45.4799 17.7977
1 36.83 47.7306 17.9197
1 36.7204 48.9899 20.2729
1 35.3753 46.6372 19.9804
1 38.196 45.45 17.903
1 39.3921 47.6464 18.3113
1 39.2751 49.0301 20.4745
1 37.9652 46.8217 20.226
1 40.828 45.4504 18.2769
1 41.9271 47.6493 18.4154
1 41.8065 49.1569 20.3685
1 40.5972 46.8085 20.3825
1 43.3301 45.436 18.4051
1 44.4476 47.6835 18.1626
1 44.439 49.0148 20.2744
1 43.1868 46.8414 20.4142
1 45.7193 45.4703 18.1984
1 46.9283 47.6741 17.9842
1 47.0434 49.1021 20.2934
1 45.66 46.8267 20.2131
1 48.3451 45.5516 18.2326
1 49.4663 47.7826 18.1292
1 49.5404 49.2414 20.3074
1 48.2379 47.0353 20.3601
1 35.7715 49.9829 18.1697
1 38.2599 49.8394 18.3568
1 40.6692 49.7585 18.2834
1 43.19 49.8066 18.2458
1 45.7575 49.8978 18.2867
1 48.2176 50.0042 18.1399
1 44.7296 36.007 24.3428
1 48.6064 34.2645 22.893
1 47.2482 35.7384 24.4181
1 51.0675 34.4027 22.7686
1 49.8079 35.7671 24.3956
1 39.533 38.7902 22.2485
1 39.3216 40.1771 24.34
1 42.0561 38.6221 22.0894
1 42.0572 40.2515 24.5212
1 40.7498 38.2056 24.3031
1 43.496 36.4953 22.1658
1 44.5673 38.7864 22.2801
1 44.6356 40.3035 24.4422
1 43.2686 38.0472 24.316
1 46.0721 36.5502 22.2997
1 47.0656 38.7742 22.3831
1 47.1219 40.4037 24.4098
1 45.8917 38.1736 24.3332
1 48.5323 36.6116 22.2552
1 49.5803 38.847 22.4257
1 49.5839 40.3147 24.4968
1 48.4782 38.0199 24.4562
1 37.056 43.3093 22.19
1 36.6854 44.5478 24.3392
1 38.3704 41.0547 22.2045
1 39.5075 43.1485 22.3044
1 39.1501 44.4901 24.4892
1 37.9005 42.2878 24.3491
1 40.8554 40.9163 22.3711
1 41.9762 43.1765 22.4627
1 41.8453 44.5858 24.5504
1 40.5032 42.351 24.4331
1 43.3353 40.9383 22.271
1 44.5719 43.1445 22.3509
1 44.4791 44.7294 24.4641
1 43.214 42.4459 24.4881
1 45.8539 41.0144 22.3739
1 47.0822 43.2646 22.4216
1 47.0474 44.6917 24.5205
1 45.8577 42.5147 24.4588
1 48.3942 41.0109 22.3409
1 49.6274 43.3413 22.4235
1 49.5658 44.725 24.5565
1 48.35 42.5423 24.4635
1 34.5604 47.682 22.1479
1 34.4003 48.9906 24.3856
1 35.8519 45.5276 22.1134
1 36.9584 47.7286 22.4094
1 36.8045 49.098 24.4327
1 35.4623 46.8096 24.3861
1 38.232 45.4153 22.2681
1 39.3293 47.5935 22.3637
1 39.3105 49.0485 24.4487
1 37.9328 46.8007 24.4113
1 40.7509 45.3524 22.3819
1 41.8745 47.6289 22.4451
1 41.8372 49.1283 24.5852
1 40.5806 46.8359 24.3944
1 43.1793 45.4144 22.4591
1 44.4407 47.6388 22.4419
1 44.3996 49.1426 24.5375
1 43.1037 46.8829 24.5463
1 45.8152 45.52 22.4136
1 46.9549 47.7103 22.4186
1 46.9963 49.1299 24.5075
1 45.6442 46.9215 24.5703
1 48.2912 45.4523 22.4904
1 49.5604 47.6734 22.4245
1 49.4315 49.0488 24.4621
1 48.2164 46.9494 24.5299
1 35.5191 49.9331 22.3306
1 38.0637 49.8597 22.3755
1 40.6971 49.8686 22.5112
1 43.2182 49.7662 22.4206
1 45.7284 49.878 22.432
1 48.1691 49.9522 22.3874
1 44.7669 36.0696 28.5486
1 47.2573 34.4049 26.5373
1 47.2521 35.7674 28.5764
1 49.6263 34.5448 26.5522
1 49.7263 35.8739 28.6348
1 39.5265 38.7562 26.5486
1 39.2805 40.2406 28.6677
1 41.9944 38.6609 26.495
1 42.0418 40.1917 28.6605
1 40.7169 38.1685 28.6755
1 43.4974 36.6454 26.3498
1 44.6396 38.7496 26.5027
1 44.5661 40.1778 28.6346
1 43.329 38.0417 28.6181
1 46.0369 36.5853 26.441
1 47.1944 38.8726 26.4771
1 47.1081 40.2869 28.6278
1 45.9038 38.0844 28.6086
1 48.6016 36.6885 26.5629
1 49.7087 38.9197 26.5378
1 49.7121 40.4052 28.7238
1 48.4835 38.1286 28.6207
1 37.0848 43.2829 26.4675
1 36.6697 44.5215 28.6486
1 38.3806 41.1027 26.5068
1 39.536 43.2067 26.5558
1 39.1693 44.6538 28.6487
1 38.012 42.4439 28.6068
1 40.7489 40.8947 26.5066
1 42.004 43.1511 26.5507
1 41.8111 44.5833 28.6049
1 40.5222 42.379 28.6419
1 43.2941 40.8793 26.5873
1 44.5537 43.1329 26.5454
1 44.4581 44.6736 28.6672
1 43.2244 42.377 28.6376
1 45.8506 40.9944 26.5583
1 47.0066 43.2547 26.5408
1 47.0474 44.6929 28.6425
1 45.7185 42.4734 28.6673
1 48.3584 41.0124 26.5375
1 49.6273 43.29 26.6231
1 49.5985 44.7685 28.747
1 48.3377 42.5712 28.6956
1 34.461 47.7353 26.4658
1 34.4314 49.1116 28.5932
1 35.7382 45.4959 26.4408
1 36.8345 47.7035 26.5473
1 36.8345 49.1237 28.6705
1 35.3834 46.7999 28.6043
1 38.1938 45.4846 26.5673
1 39.3764 47.6377 26.5371
1 39.3048 49.1352 28.6702
1 37.9404 46.8544 28.6391
1 40.6736 45.4213 26.5162
1 41.8876 47.6364 26.6425
1 41.8553 49.0951 28.7503
1 40.4314 46.8895 28.725
1 43.2209 45.3389 26.6092
1 44.4455 47.6809 26.6362
1 44.4506 49.1463 28.6739
1 43.1291 46.8479 28.683
1 45.7045 45.417 26.6472
1 46.934 47.6849 26.5938
1 47.0069 49.2123 28.7513
1 45.7065 46.958 28.6811
1 48.3288 45.4172 26.63
1 49.547 47.5717 26.5961
1 49.4479 49.1776 28.6985
1 48.2007 46.9882 28.6851
1 35.5042 50.0457 26.5431
1 37.9592 49.9073 26.5088
1 40.5397 49.9252 26.594
1 43.0643 49.8708 26.6479
1 45.7263 49.8736 26.5704
1 48.2672 49.8497 26.6054
1 47.8258 34.5127 30.7946
1 50.1616 34.5235 30.7049
1 39.5025 38.8077 30.8511
1 42.0279 38.6409 30.7129
1 43.6296 36.6067 30.6139
1 44.6795 38.7619 30.6954
1 46.0904 36.5055 30.7287
1 47.1341 38.8695 30.7458
1 48.5731 36.7963 30.7306
1 49.7657 38.9238 30.8114
1 37.0171 43.2646 30.7335
1 38.2106 41.0594 30.8419
1 39.4725 43.2402 30.7679
1 40.7577 40.9031 30.6912
1 41.9931 43.1226 30.7244
1 43.2565 40.9474 30.8001
1 44.5235 43.1298 30.8353
1 45.8706 41.0388 30.6872
1 47.0537 43.1928 30.7333
1 48.4806 41.0723 30.7619
1 49.737 43.2505 30.7094
1 34.4071 47.7967 30.8118
1 35.696 45.5321 30.8057
1 36.8812 47.7245 30.7801
1 38.2271 45.4743 30.7226
1 39.2923 47.6692 30.7942
1 40.7199 45.45 30.7305
1 41.7897 47.6541 30.8198
1 43.1025 45.392 30.6581
1 44.429 47.6018 30.7175
1 45.6873 45.3799 30.726
1 47.0353 47.6618 30.7702
1 48.2905 45.3601 30.7563
1 49.4991 47.6465 30.7891
1 35.5806 49.9336 30.8152
1 38.0592 49.8817 30.8298
1 40.549 49.9045 30.8467
1 43.1339 49.9529 30.8376
1 45.6032 49.916 30.8753
1 48.1744 49.893 30.8658
1 44.7219 36.0904 32.8092
1 47.3278 35.7239 32.828
1 49.7704 35.6674 32.8439
1 39.2986 40.2569 32.9088
1 41.9803 40.3248 32.8727
1 40.7797 38.2845 32.8635
1 44.6068 40.2518 32.86
1 43.3005 38.0318 32.8504
1 47.2158 40.3687 32.7855
1 45.855 38.0676 32.7615
1 49.6846 40.3225 32.8018
1 48.337 38.0991 32.8562
1 36.7007 44.5604 32.819
1 39.2211 44.6611 32.8166
1 37.9729 42.4255 32.908
1 41.8422 44.6867 32.8553
1 40.6804 42.4104 32.7964
1 44.4211 44.7665 32.8609
1 43.2251 42.4923 32.8155
1 47.0062 44.7698 32.8919
1 45.8871 42.4683 32.8572
1 49.5854 44.7307 32.8832
1 48.4561 42.6183 32.7414
1 34.3688 49.1127 32.9514
1 36.7284 48.9939 32.9506
1 35.3617 46.8596 32.8933
1 39.2152 49.049 32.8977
1 37.8493 46.8637 32.8991
1 41.8186 49.0732 32.9857
1 40.4061 46.8466 32.8072
1 44.4051 49.1994 32.8878
1 43.171 46.9662 32.8062
1 46.9622 49.1849 32.9035
1 45.718 46.9911 32.8244
1 49.5317 49.2155 32.8911
1 48.2548 46.9279 32.8096
1 44.8019 35.973 37.0238
1 47.193 34.3323 34.9461
1 47.2646 35.7818 36.9413
1 49.5125 34.3579 34.9094
1 49.8278 35.6984 36.9448
1 39.599 38.9309 35.0314
1 39.3123 40.3474 37.0979
1 42.0818 38.8008 34.9955
1 41.9362 40.287 37.125
1 40.7525 38.1819 37.097
1 43.5537 36.5967 34.9618
1 44.7412 38.8159 34.9261
1 44.4378 40.1724 37.0672
1 43.234 37.9648 37.0392
1 46.0911 36.5984 34.8859
1 47.1876 38.8938 34.9277
1 47.0753 40.2897 37.0711
1 45.8491 38.0294 37.0733
1 48.5622 36.7207 34.9959
1 49.6523 38.9287 34.8446
1 49.6035 40.2935 36.9662
1 48.2797 38.1128 37.0262
1 37.1189 43.3551 35.0141
1 36.7268 44.6594 37.1076
1 38.2851 41.1218 34.9972
1 39.5744 43.2803 34.9168
1 39.3017 44.5221 37.0764
1 37.8908 42.381 37.0881
1 40.7993 41.0638 34.9693
1 42.0352 43.1965 35.0062
1 41.8395 44.6132 37.0031
1 40.5007 42.4216 37.1035
1 43.2671 41.0033 34.914
1 44.5555 43.1654 34.8205
1 44.4744 44.7064 37.11
1 43.1861 42.4239 37.035
1 45.8289 41.0447 35.0047
1 47.1301 43.3588 35.0177
1 46.9693 44.7368 37.0835
1 45.6711 42.4934 37.0977
1 48.2877 41.0551 34.861
1 49.6381 43.2622 35.0145
1 49.5068 44.6765 37.1228
1 48.2114 42.4939 37.0343
1 34.4003 47.7677 35.0403
1 34.3232 49.1119 37.1581
1 35.8345 45.6029 35.0005
1 36.8807 47.6639 35.0217
1 36.8369 49.0399 37.1389
1 35.5583 46.899 37.1697
1 38.2944 45.5526 35.0215
1 39.3636 47.6838 34.9943
1 39.4185 49.0822 37.0632
1 38.0743 46.7861 37.203
1 40.6956 45.4038 34.9647
1 41.8624 47.6182 34.9905
1 41.945 49.0656 37.1051
1 40.6234 46.8867 37.1021
1 43.1545 45.439 34.9228
1 44.4273 47.6882 34.9561
1 44.4274 49.1055 37.0518
1 43.1795 46.834 37.0858
1 45.6516 45.4811 34.937
1 47.0046 47.6641 34.9954
1 46.9877 49.1074 37.1991
1 45.6882 46.8847 37.0398
1 48.2501 45.5611 34.9891
1 49.5948 47.7389 34.9825
1 49.4854 49.1993 37.0425
1 48.3306 46.9129 37.1614
1 35.5371 49.9695 35.0177
1 38.0928 49.9168 35.0508
1 40.5998 49.9002 35.0282
1 43.1443 49.9035 34.9861
1 45.6787 49.9337 35.0119
1 48.2108 49.9133 34.9999
1 44.6791 35.908 41.2634
1 47.5835 34.435 39.0838
1 47.3262 35.6742 41.2286
1 50.0183 34.4169 39.1841
1 49.8525 35.6182 41.2207
1 39.6384 38.8618 39.2223
1 39.2985 40.1988 41.345
1 42.1223 38.6054 39.2459
1 41.9191 40.1942 41.4193
1 40.8094 38.1175 41.3547
1 43.6096 36.6243 39.0982
1 44.6203 38.8142 39.2193
1 44.407 40.1692 41.2854
1 43.2626 37.8808 41.3099
1 46.0791 36.5568 39.1708
1 47.0763 38.8297 39.1385
1 46.9849 40.2605 41.293
1 45.863 38.0598 41.2929
1 48.5266 36.6085 39.0403
1 49.613 38.7931 39.0895
1 49.6028 40.259 41.2376
1 48.4062 38.011 41.1981
1 37.0761 43.416 39.2164
1 36.7019 44.7393 41.2813
1 38.4296 41.1911 39.2385
1 39.6121 43.3253 39.2351
1 39.2904 44.6164 41.3631
1 38.0039 42.5381 41.3547
1 40.8372 40.9967 39.2095
1 42.0331 43.2214 39.1945
1 41.9092 44.5794 41.3457
1 40.6301 42.3922 41.3247
1 43.2658 40.8782 39.2673
1 44.5292 43.2411 39.1943
1 44.4382 44.6419 41.2423
1 43.1343 42.398 41.3356
1 45.7975 41.0729 39.1517
1 47.1146 43.2557 39.087
1 47.0238 44.6013 41.2481
1 45.7106 42.3993 41.2208
1 48.3392 40.9451 39.1365
1 49.6369 43.302 39.1716
1 49.5427 44.8331 41.2561
1 48.4198 42.4783 41.2771
1 34.4846 47.8409 39.2798
1 34.4783 49.1009 41.4598
1 35.8057 45.5786 39.2568
1 36.9472 47.8136 39.2355
1 36.9273 49.1681 41.3055
1 35.4378 46.9077 41.3507
1 38.1968 45.5115 39.247
1 39.4786 47.7197 39.2759
1 39.3939 49.159 41.3471
1 37.9857 46.8794 41.3566
1 40.6883 45.4673 39.2122
1 41.9913 47.6317 39.2107
1 41.9162 49.0214 41.2532
1 40.6056 46.8348 41.3431
1 43.1747 45.4805 39.1906
1 44.5364 47.5158 39.1046
1 44.4641 48.9842 41.318
1 43.1518 46.8136 41.3029
1 45.829 45.4258 39.1505
1 47.047 47.6683 39.2616
1 47.0354 49.0341 41.3085
1 44.4996 47.5818 43.3966
1 50.8073 45.465 39.2242
1 49.5244 47.7137 39.2225
1 49.5497 49.1598 41.284
1 45.6805 46.783 41.221
1 35.6356 50.0532 39.2516
1 38.1356 49.9143 39.1769
1 40.6676 49.9224 39.2563
1 43.1989 49.8342 39.1787
1 45.7325 49.7195 39.2298
1 48.3286 49.8856 39.2097
1 47.697 34.5001 43.3588
1 50.1403 34.4521 43.3572
1 39.6739 38.9028 43.4033
1 42.1642 38.6275 43.4515
1 43.6346 36.5494 43.3951
1 44.7109 38.7743 43.4618
1 46.114 36.4877 43.3195
1 47.1478 38.7547 43.3419
1 48.6639 36.6906 43.2862
1 49.6243 38.8723 43.3626
1 37.1421 43.4317 43.3892
1 38.4741 41.2675 43.4456
1 39.6165 43.2805 43.4058
1 40.9467 41.0098 43.4064
1 42.0586 43.252 43.4663
1 43.29 40.9891 43.4394
1 44.5673 43.2684 43.385
1 45.8022 40.9935 43.283
1 47.0737 43.2357 43.4028
1 48.3791 41.1108 43.4125
1 49.6137 43.2704 43.2209
1 34.616 47.7843 43.5524
1 35.8038 45.622 43.4195
1 37.0396 47.8465 43.367
1 38.3331 45.5454 43.4718
1 39.4469 47.7509 43.4279
1 40.7725 45.4284 43.4614
1 42.0065 47.6564 43.5287
1 43.2851 45.4085 43.4593
1 45.8343 46.8624 45.4711
1 45.9079 45.4265 43.3964
1 47.0366 47.5989 43.3148
1 48.4098 45.5389 43.3209
1 49.5949 47.7369 43.4103
1 35.6369 50.0186 43.4682
1 38.1969 50.0173 43.4863
1 40.5801 49.8364 43.4722
1 43.2869 49.7906 43.4345
1 45.7535 49.7939 43.3992
1 48.2691 49.8063 43.383
1 44.8705 35.8445 45.4715
1 47.3693 35.7315 45.4425
1 49.769 35.7003 45.4454
1 39.3252 40.1802 45.5114
1 41.9253 40.1818 45.553
1 40.7286 38.0884 45.5607
1 44.4942 40.1362 45.4893
1 43.171 37.8564 45.5737
1 47.091 40.2695 45.4135
1 45.8264 38.0201 45.4787
1 49.654 40.2739 45.456
1 48.3701 38.0455 45.4227
1 36.6587 44.523 45.5021
1 39.3025 44.5941 45.5289
1 37.9934 42.3424 45.5605
1 41.9 44.5561 45.55
1 40.5439 42.4253 45.5275
1 44.5158 44.6334 45.505
1 43.1402 42.3813 45.5008
1 47.0731 44.6958 45.5345
1 45.6522 42.3884 45.5238
1 49.5639 44.7006 45.3433
1 48.3488 42.582 45.4231
1 34.53 49.1351 45.5385
1 36.9569 49.0939 45.627
1 35.5535 46.7917 45.585
1 39.4525 49.1274 45.5874
1 38.0279 46.8783 45.5041
1 41.9597 49.1451 45.5498
1 40.6084 46.8275 45.5283
1 44.4544 49.0419 45.5616
1 43.1204 46.7989 45.5811
1 48.311 51.2517 45.4541
1 47.0288 49.0586 45.433
1 49.6592 49.1561 45.442
1 48.3115 46.8876 45.4723
1 44.708 36.0088 49.6734
1 47.7269 34.5673 47.5876
1 47.3499 35.8156 49.7475
1 50.1194 34.5058 47.5869
1 49.7093 35.7968 49.5481
1 39.5493 38.8434 47.6707
1 39.2928 40.2749 49.7547
1 42.0277 38.5764 47.6421
1 42.0212 40.2768 49.758
1 40.7869 38.1407 49.7678
1 43.6256 36.6056 47.5489
1 44.7066 38.7728 47.5365
1 44.5684 40.1629 49.7623
1 43.2563 38.0147 49.7803
1 46.0943 36.5032 47.5577
1 47.1537 38.7743 47.5508
1 47.1996 40.2581 49.6026
1 45.8689 38.1258 49.6014
1 48.6316 36.7024 47.5554
1 49.8633 38.888 47.511
1 49.7565 40.2606 49.5687
1 48.3937 38.1096 49.5932
1 37.0764 43.3541 47.6354
1 36.7268 44.5656 49.8851
1 38.3222 41.1105 47.6682
1 39.5776 43.2299 47.6494
1 39.3328 44.5884 49.8345
1 38.0896 42.4523 49.754
1 40.8752 40.9777 47.6493
1 41.9874 43.1196 47.6527
1 41.8816 44.538 49.7533
1 40.5872 42.3441 49.7367
1 43.3329 40.8365 47.6996
1 44.5026 43.0653 47.5191
1 44.4539 44.584 49.6635
1 43.2727 42.3744 49.7631
1 45.8423 41.0371 47.5982
1 47.0897 43.1775 47.5555
1 47.0822 44.6965 49.6236
1 45.8683 42.4225 49.6905
1 48.3739 41.0174 47.524
1 49.588 43.2264 47.5679
1 49.678 44.727 49.613
1 48.3751 42.4929 49.6938
1 34.6003 47.8032 47.6031
1 34.5684 49.0813 49.7437
1 35.8668 45.4726 47.7167
1 37.0172 47.7106 47.6509
1 36.9733 49.0881 49.7661
1 35.4937 46.8416 49.7885
1 38.3306 45.4791 47.6754
1 39.5133 47.6841 47.6635
1 39.4457 49.0636 49.7866
1 38.1574 46.8437 49.8199
1 40.7817 45.4055 47.637
1 42.0705 47.6145 47.6684
1 42.0032 49.0546 49.7742
1 40.7125 46.771 49.8583
1 43.3205 45.381 47.5413
1 44.5306 47.6443 47.6398
1 44.5415 49.1133 49.7204
1 43.2269 46.8233 49.797
1 45.803 45.3451 47.5686
1 47.0136 47.5028 47.6271
1 47.0765 49.0221 49.6465
1 45.7751 46.8338 49.7047
1 48.459 45.4244 47.5421
1 49.5429 47.6287 47.5744
1 50.9008 49.8853 51.7758
1 48.3606 46.9016 49.6916
1 35.6512 50.0135 47.6841
1 38.189 49.9326 47.6356
1 40.7667 49.851 47.6837
1 43.2914 49.931 47.6619
1 45.8344 49.768 47.5619
1 49.5974 49.1036 49.6768
1 44.7063 36.1123 53.9148
1 48.7105 34.3273 51.3645
1 47.2187 36.0139 53.8336
1 51.0315 34.2533 50.9423
1 49.8884 36.0206 53.8723
1 39.657 38.9156 51.8411
1 39.4121 40.214 53.9632
1 42.0828 38.6235 51.8965
1 41.9784 40.1703 53.937
1 40.6912 38.0217 53.9644
1 43.4755 36.4856 51.7551
1 44.6202 38.6686 51.8425
1 43.313 38.1483 53.9528
1 42.195 36.081 53.9608
1 46.0712 36.5202 51.8143
1 47.1487 38.7287 51.7998
1 47.1216 40.3184 53.8783
1 45.9829 38.2191 53.9264
1 48.6351 36.6185 51.8643
1 49.6757 38.8994 51.7993
1 49.6921 40.3753 53.8863
1 48.4546 38.0955 53.9154
1 37.1496 43.3558 51.9525
1 36.9396 44.6628 54.0155
1 38.3834 41.0966 51.882
1 39.5522 43.2726 51.8999
1 39.3576 44.624 54.0258
1 38.1163 42.3803 53.9848
1 40.8747 41.0085 51.8067
1 42.004 43.239 51.8143
1 41.9444 44.6579 53.9524
1 40.6321 42.3794 54.0129
1 43.3082 40.9266 51.8725
1 44.5529 43.1603 51.8008
1 44.5184 44.6629 53.8817
1 43.2211 42.4589 53.9224
1 45.9153 41.031 51.8159
1 47.1289 43.2403 51.8288
1 45.8402 42.5588 53.9416
1 44.6371 40.2795 53.8956
1 48.4147 40.9979 51.7872
1 49.6804 43.243 51.7657
1 49.6845 44.8271 53.882
1 48.409 42.5878 53.9301
1 34.5528 47.807 51.976
1 34.5893 49.1324 53.9708
1 35.8421 45.5488 51.913
1 36.934 47.7005 51.859
1 36.9072 49.1194 53.9626
1 35.5879 46.7973 54.0542
1 38.2994 45.5167 51.8893
1 39.4809 47.6941 51.962
1 39.4676 49.0986 53.9907
1 38.1094 46.9074 53.9954
1 40.7474 45.4057 51.9316
1 42.0096 47.5929 51.9415
1 41.9416 49.194 53.9629
1 40.7169 46.8462 53.9867
1 43.2493 45.4385 51.8404
1 44.568 47.6189 51.8541
1 44.5405 49.1163 53.8886
1 43.2167 46.8614 53.9546
1 45.8166 45.3944 51.8419
1 47.127 47.6427 51.7712
1 47.127 49.1406 53.9188
1 45.9206 46.9597 53.8826
1 48.4148 45.4405 51.8293
1 49.6503 47.6839 51.7604
1 48.4436 47.0082 53.8256
1 47.0916 44.7057 53.8253
1 35.6101 50.0083 51.8374
1 38.1827 49.889 51.8457
1 40.7246 49.8632 51.8678
1 43.2701 49.8943 51.9442
1 45.7611 49.8447 51.837
1 48.3717 49.8861 51.7655
1 44.8287 36.0155 58.2343
1 48.5967 34.0032 53.759
1 47.3282 36.0549 58.2275
1 49.9135 34.3935 55.8878
1 49.7171 35.8354 58.1073
1 39.6824 38.8833 56.1053
1 39.3199 40.1762 58.2349
1 42.2923 38.9221 56.1039
1 41.8987 40.2791 58.2349
1 40.7711 38.0862 58.2701
1 41.1608 36.8719 56.1297
1 43.5806 36.5831 56.167
1 44.5406 40.305 58.2063
1 43.306 38.0044 58.1461
1 46.0916 36.4544 56.0272
1 47.2846 38.6857 56.0473
1 47.1028 40.276 58.0697
1 45.8951 38.1505 58.1758
1 48.4932 36.5242 55.9891
1 49.8517 38.8449 55.9571
1 49.7037 40.3293 58.0274
1 48.5172 38.1788 58.1075
1 37.2095 43.3951 56.1374
1 36.8113 44.6842 58.2392
1 38.3724 41.0881 56.1468
1 39.6364 43.2646 56.1159
1 39.3844 44.5754 58.2077
1 38.1656 42.4819 58.252
1 40.9241 40.9962 56.1514
1 42.1477 43.2218 56.0979
1 41.9263 44.578 58.2377
1 40.6075 42.3741 58.2281
1 43.4586 40.9934 55.9573
1 44.6703 43.3416 56.0587
1 44.4851 44.6829 58.1504
1 43.2989 42.421 58.1837
1 44.76 38.7691 55.9597
1 45.913 41.017 55.9756
1 47.0681 44.8086 58.0893
1 45.8657 42.5513 58.1667
1 48.4552 40.975 56.0067
1 49.7096 43.2214 55.9299
1 49.5866 44.669 58.0356
1 48.3739 42.489 58.0582
1 34.5873 47.8363 56.1228
1 34.2859 49.2406 58.1812
1 35.9835 45.5787 56.2025
1 37.0849 47.8201 56.1236
1 36.7933 49.1128 58.2022
1 35.614 46.9405 58.1994
1 38.3783 45.5651 56.1319
1 39.5124 47.729 56.142
1 39.3537 49.1474 58.2146
1 38.0539 46.8721 58.1883
1 40.8044 45.4471 56.1205
1 42.0082 47.6182 56.0373
1 41.8836 49.1038 58.1247
1 40.6625 46.8598 58.1583
1 43.2821 45.4353 56.0553
1 44.4638 47.6136 55.9604
1 44.465 49.0339 58.1404
1 43.2362 46.8462 58.0507
1 45.8133 45.486 56
1 47.0618 47.6487 55.9553
1 47.0051 49.1347 58.142
1 45.8051 46.949 58.1003
1 47.2184 43.2607 55.9715
1 48.3023 45.4227 55.9169
1 49.669 49.0972 58.1386
1 48.4016 46.9598 58.1088
1 35.6722 50.0085 56.116
1 38.0828 49.9664 56.0723
1 40.6468 49.9796 56.1513
1 43.2095 49.8347 56.015
1 45.7187 49.9531 56.0395
1 48.3185 49.824 56.0278
1 44.8292 36.1153 62.4274
1 47.7472 34.5935 60.2085
1 47.5013 35.8708 62.4328
1 50.0889 34.4969 60.0898
1 50.0071 35.6737 62.3363
1 39.6663 38.9511 60.3748
1 39.375 40.3525 62.4838
1 42.1751 38.8043 60.2785
1 42.0573 40.3512 62.434
1 40.781 38.3232 62.4775
1 43.64 36.6572 60.2363
1 44.6274 38.8346 60.3601
1 44.6001 40.2518 62.3818
1 43.2976 38.0409 62.3755
1 46.084 36.5814 60.374
1 47.2068 38.849 60.2101
1 47.2589 40.3566 62.3636
1 45.9616 38.2126 62.4507
1 48.7451 36.7405 60.2767
1 49.8586 38.921 60.1468
1 49.8585 40.2566 62.2824
1 48.5552 38.1282 62.3132
1 37.1507 43.4251 60.3069
1 36.8565 44.7707 62.3992
1 38.404 41.1412 60.3116
1 39.6385 43.3225 60.3364
1 39.3981 44.7509 62.3721
1 38.0916 42.5149 62.3855
1 40.8704 40.9627 60.3227
1 42.1186 43.235 60.2577
1 41.9585 44.7227 62.3824
1 40.7011 42.3874 62.4002
1 43.4074 41.0463 60.3079
1 44.6362 43.2226 60.2458
1 44.6251 44.7817 62.2978
1 43.3236 42.5681 62.4034
1 45.8964 40.9939 60.2576
1 47.1913 43.227 60.1646
1 47.1416 44.7125 62.2667
1 45.8888 42.4802 62.2706
1 48.4819 40.9998 60.1981
1 49.6483 43.2774 60.0921
1 49.7054 44.7742 62.2706
1 48.5148 42.4583 62.1817
1 34.8024 48.0069 60.3387
1 34.4588 49.2608 62.484
1 36.031 45.7244 60.3666
1 37.1847 47.8205 60.2896
1 36.9313 49.1111 62.3508
1 35.5802 46.9928 62.3704
1 38.4742 45.5752 60.3079
1 39.5937 47.7287 60.2188
1 39.4693 49.1473 62.27
1 38.188 46.9681 62.3215
1 40.8554 45.4409 60.3235
1 42.0035 47.673 60.2863
1 41.9961 49.1634 62.2715
1 40.6898 46.9128 62.4056
1 43.3813 45.4847 60.2382
1 44.52 47.6557 60.2031
1 44.5702 49.1182 62.3416
1 43.3234 46.8642 62.3579
1 45.8705 45.4409 60.1966
1 47.1262 47.6719 60.1629
1 47.2016 49.1725 62.2697
1 45.9045 47.0192 62.234
1 48.3429 45.4447 60.1835
1 49.5826 47.6657 60.1733
1 49.6863 49.1289 62.1766
1 48.4736 46.9287 62.2892
1 35.8631 50.107 60.2018
1 38.2409 50.0237 60.2665
1 40.7675 49.9826 60.1649
1 43.2532 49.9081 60.2608
1 45.8043 49.8976 60.1669
1 48.3406 49.8425 60.0752
1 44.8156 35.9964 66.5898
1 47.2129 34.4086 64.5616
1 47.4318 35.7916 66.589
1 49.5635 34.3188 64.4818
1 49.8959 35.8164 66.5011
1 39.7101 38.978 64.5789
1 39.4992 40.3568 66.7323
1 42.1773 38.7858 64.5191
1 42.26 40.3541 66.6225
1 40.8528 38.3526 66.6291
1 43.6245 36.7887 64.5427
1 44.7638 38.9451 64.5065
1 44.7399 40.2587 66.5782
1 43.3589 38.0854 66.6157
1 46.1471 36.5966 64.5689
1 47.2978 38.8371 64.5062
1 47.2999 40.3801 66.584
1 45.9789 38.1329 66.5701
1 48.7402 36.6814 64.3671
1 49.7561 38.9491 64.4171
1 49.8041 40.3189 66.547
1 48.5147 37.9971 66.5201
1 37.2438 43.481 64.5369
1 36.8844 44.6971 66.6098
1 38.4697 41.261 64.6117
1 39.6925 43.3885 64.473
1 39.5028 44.7148 66.5559
1 38.2176 42.5564 66.6605
1 40.8708 41.0931 64.5795
1 42.0883 43.2698 64.5149
1 42.0663 44.7601 66.5382
1 40.7928 42.5244 66.5713
1 43.4303 41.0305 64.4737
1 44.6729 43.289 64.4829
1 44.6351 44.7711 66.5206
1 43.4148 42.5101 66.5732
1 46.0006 41.0817 64.4866
1 47.1982 43.2647 64.3544
1 47.2126 44.6945 66.5132
1 45.9265 42.5403 66.5205
1 48.5677 41.1184 64.4551
1 49.8357 43.352 64.4132
1 49.7952 44.7228 66.4441
1 48.5083 42.5762 66.4295
1 34.5867 47.8901 64.5823
1 34.6459 49.2392 66.6226
1 35.8816 45.7044 64.4966
1 36.99 47.8491 64.5623
1 36.9509 49.2403 66.5913
1 35.5715 46.9541 66.5911
1 38.3353 45.5682 64.5357
1 39.4543 47.7846 64.4584
1 39.5361 49.2314 66.5032
1 38.1883 47.004 66.6832
1 40.9197 45.4748 64.4293
1 42.1662 47.7578 64.4124
1 42.0303 49.1947 66.4911
1 40.7718 46.9641 66.5554
1 43.3937 45.5097 64.4238
1 44.6824 47.6982 64.4119
1 44.5911 49.247 66.5469
1 43.3602 46.9506 66.5575
1 45.9247 45.4723 64.4581
1 47.1461 47.7451 64.3809
1 47.1027 49.2081 66.513
1 45.8716 47.0341 66.4586
1 48.3978 45.4836 64.3445
1 49.7686 47.6505 64.2036
1 49.7085 49.1551 66.5204
1 48.431 46.9506 66.4445
1 35.6472 50.09 64.5145
1 38.1812 50.0854 64.3656
1 40.7745 49.941 64.4231
1 43.369 49.9443 64.3714
1 45.9171 49.9523 64.3674
1 48.4783 49.8821 64.442
1 44.9089 36.1211 70.8973
1 47.2886 34.5284 68.673
1 47.4795 35.8708 70.7838
1 49.6846 34.5838 68.6483
1 50.0224 35.85 70.8157
1 39.747 38.8764 68.8089
1 39.6088 40.4653 70.8548
1 42.2013 38.7851 68.7389
1 42.0672 40.4799 70.8318
1 40.9272 38.3444 70.8788
1 43.7176 36.685 68.7531
1 44.8064 38.8829 68.6236
1 44.7534 40.3563 70.7849
1 43.4203 38.1867 70.8253
1 46.2443 36.7068 68.654
1 47.3038 38.859 68.7398
1 47.3358 40.4493 70.737
1 46.0764 38.2524 70.768
1 48.7175 36.7636 68.736
1 49.9084 38.9071 68.7418
1 49.8295 40.4101 70.6902
1 48.5432 38.1604 70.8325
1 37.333 43.4802 68.7135
1 36.9313 44.8524 70.8581
1 38.5047 41.1563 68.8083
1 39.7237 43.3212 68.7516
1 39.4678 44.8189 70.8516
1 38.2067 42.5708 70.8895
1 40.9823 41.0759 68.6752
1 42.2323 43.3112 68.7378
1 42.1276 44.828 70.7603
1 40.8385 42.6224 70.8416
1 43.5423 41.1159 68.726
1 44.7085 43.4056 68.6339
1 44.6891 44.8776 70.6885
1 43.4058 42.5991 70.7859
1 46.0683 41.1197 68.6639
1 47.2829 43.3564 68.6306
1 47.2281 44.8947 70.7162
1 46.0683 42.6191 70.6929
1 48.6465 41.1635 68.5741
1 49.8143 43.3391 68.5384
1 49.9384 44.8025 70.6367
1 48.5839 42.7496 70.7049
1 34.6639 47.9236 68.7797
1 34.6317 49.3278 70.7962
1 35.9577 45.6834 68.7107
1 37.076 47.8135 68.6762
1 37.0333 49.193 70.7304
1 35.5875 47.0033 70.8571
1 38.4148 45.5659 68.6587
1 39.59 47.8339 68.6606
1 39.5648 49.2143 70.7733
1 38.0641 47.0616 70.772
1 40.9356 45.5783 68.7584
1 42.1116 47.8181 68.5827
1 42.0656 49.1653 70.8409
1 40.7046 47.021 70.8223
1 43.4333 45.6132 68.5923
1 44.6295 47.814 68.6684
1 44.6181 49.2897 70.8323
1 43.3027 47.0043 70.7165
1 45.9891 45.6405 68.5944
1 47.2819 47.7567 68.6045
1 47.2198 49.2739 70.6946
1 45.9373 47.1831 70.6763
1 48.5819 45.5625 68.5607
1 49.8007 47.7244 68.5402
1 49.7806 49.2543 70.7372
1 48.5668 46.9995 70.677
1 35.7029 50.1312 68.7303
1 38.3253 49.9798 68.669
1 40.8151 49.9402 68.6195
1 43.3807 49.9466 68.71
1 45.9199 49.8652 68.6387
1 48.4229 49.9669 68.5506
1 44.9718 36.1562 75.0587
1 47.6805 34.7184 72.9276
1 47.4678 35.9634 75.0085
1 50.0343 34.4014 72.8771
1 50.0432 35.8926 74.925
1 39.847 39.0781 73.1191
1 39.6439 40.4249 75.2645
1 42.2549 38.8474 72.9946
1 42.2484 40.34 75.1025
1 40.9804 38.292 75.2485
1 43.8313 36.8452 72.9818
1 44.8437 39.0329 72.9337
1 44.7987 40.4283 75.0357
1 43.449 38.112 75.1135
1 46.3189 36.7958 72.9497
1 47.352 39.0168 72.8767
1 47.3274 40.4755 74.8848
1 46.0701 38.2939 74.9235
1 48.9162 36.8183 72.84
1 49.9796 39.0761 72.8172
1 49.8897 40.5 74.8267
1 48.6519 38.2078 74.8512
1 37.2636 43.4501 73.0082
1 37.0872 44.8402 75.1124
1 38.6611 41.2572 73.0231
1 39.7098 43.4174 72.9465
1 39.6633 44.8636 75.0045