5538
Atoms. Timestep: 80000
1 46.8391 40.8215 8.74441
1 47.4337 38.335 8.90506
1 46.4477 37.0564 10.7518
1 49.1502 37.1405 7.58846
1 48.5624 36.2815 9.92344
1 42.1672 39.93 8.9429
1 40.2169 41.4737 9.15505
1 43.1792 39.5969 11.1124
1 42.7221 42.2421 9.21055
1 44.3785 40.5185 8.31085
1 45.257 42.7445 8.88148
1 41.8748 40.9417 12.6323
1 46.1525 39.9574 11.9325
1 47.4376 42.8866 9.99195
1 45.3603 39.1085 9.93091
1 48.0763 39.8602 10.6335
1 47.2143 40.6454 13.8785
1 44.6518 37.8947 12.1655
1 45.8347 35.8894 12.7357
1 49.8256 36.937 13.5187
1 47.6748 38.1622 12.4458
1 48.1398 35.7504 12.1841
1 39.5414 46.0452 9.8289
1 36.5182 44.3431 9.88733
1 38.0763 42.7234 8.89993
1 39.7358 41.8089 11.5902
1 40.3958 44.7247 12.2862
1 38.7781 43.9006 10.7551
1 40.7042 39.644 10.8585
1 41.7472 43.0441 11.3496
1 41.8644 45.7152 10.3504
1 40.7094 43.8204 9.40559
1 44.5318 41.5024 10.7922
1 47.0928 43.9385 14.201
1 43.8084 43.996 10.4936
1 43.8209 42.4899 12.7373
1 45.4056 42.1548 14.4881
1 47.8754 44.4376 11.9851
1 46.1299 44.9255 10.002
1 46.3904 42.3626 12.2477
1 49.2558 39.9664 12.8157
1 50.1558 44.1454 11.6193
1 48.2928 46.1831 9.97029
1 48.7464 42.0753 11.7479
1 37.8764 48.0201 10.1505
1 38.765 50.393 9.91054
1 39.1501 44.5861 7.82715
1 35.9304 46.6921 10.6028
1 34.9072 45.9665 12.7654
1 37.469 46.152 8.6321
1 37.1372 45.1855 12.11
1 40.3947 48.5845 10.518
1 38.7538 49.4439 12.2577
1 38.9403 46.9414 12.0882
1 41.2136 45.7584 14.2548
1 43.1297 48.8511 11.6337
1 42.4068 52.6124 11.979
1 41.4531 47.2558 12.2114
1 42.9524 45.1735 12.4664
1 44.4778 47.9611 8.09954
1 44.6645 49.5166 9.9011
1 42.4571 48.0016 9.44892
1 44.1593 46.2651 9.91549
1 45.3888 44.5058 12.2523
1 46.1946 49.0496 11.6805
1 46.2037 47.4761 9.73428
1 49.3878 44.8353 14.0102
1 49.4796 46.4023 11.9795
1 49.6393 49.1757 14.0619
1 46.912 46.6942 11.9196
1 36.3552 48.7284 11.927
1 35.8207 50.3727 13.6889
1 41.2097 50.4538 11.99
1 44.0665 51.9334 10.1201
1 44.5325 47.0436 12.0564
1 48.4584 48.5214 12.2153
1 41.6166 34.9237 17.9506
1 47.102 32.6015 17.4392
1 45.1291 34.1233 17.2283
1 49.3339 33.282 16.889
1 49.4073 35.2721 15.4147
1 40.1876 36.8767 17.4078
1 39.6286 39.229 17.0724
1 41.658 37.2479 15.604
1 40.4563 39.3152 14.8666
1 42.4015 35.8971 20.1429
1 43.3542 35.6472 16.3309
1 42.5437 38.5766 13.4857
1 44.3102 40.1972 13.5193
1 43.5563 36.3602 13.9388
1 43.5608 34.0816 19.0731
1 46.093 37.2592 16.4439
1 45.8933 38.4765 14.1705
1 45.4225 35.23 15.0966
1 47.3092 34.9719 16.6721
1 48.6193 37.1878 16.762
1 48.5617 38.6316 14.7223
1 47.4708 36.5206 14.468
1 35.191 43.6186 16.3387
1 38.4543 43.3639 13.2887
1 37.1766 39.2467 17.6803
1 38.3706 42.6481 15.7875
1 38.8015 45.5692 14.092
1 36.3163 41.3939 16.5321
1 38.205 40.1811 15.3981
1 40.8252 42.5025 16.0924
1 41.8578 43.2755 14.044
1 39.9322 41.6001 14.0201
1 42.2037 39.3481 16.7986
1 43.4541 42.6251 16.1841
1 44.1397 44.3616 14.4791
1 42.2921 40.8499 14.9776
1 43.9657 38.0954 15.5728
1 47.2346 42.0286 16.1223
1 45.6849 43.9617 16.2491
1 44.5247 40.4222 16.0021
1 46.6997 39.6417 16.0073
1 48.7433 43.8191 16.2204
1 51.755 44.4559 13.4967
1 49.096 42.2156 14.2056
1 34.0605 45.4685 14.9636
1 33.502 47.6641 15.8397
1 36.0883 44.0849 14.0663
1 35.7548 46.7142 15.8439
1 35.6316 49.2689 15.9559
1 34.7551 48.1862 13.8373
1 37.2774 44.7932 15.8919
1 38.1548 47.1523 15.946
1 37.7747 49.1883 14.4866
1 36.8703 47.0911 13.6779
1 39.8517 44.6627 16.1081
1 40.7131 46.9932 16.2747
1 42.1177 49.0006 13.9507
1 39.9088 47.895 14.1271
1 42.3204 44.8661 16.2354
1 42.8219 48.1478 16.2089
1 44.6266 48.8146 13.7563
1 43.295 46.8511 14.1424
1 44.3683 46.166 16.2139
1 46.1354 47.8084 15.6077
1 47.0425 49.3694 13.9833
1 45.8352 46.089 14.0818
1 47.2487 45.7659 16.1215
1 49.6591 46.341 16.1102
1 48.3036 48.6189 16.0891
1 48.2814 46.9524 14.2108
1 33.6278 49.8299 17.1153
1 37.4436 50.8095 16.3371
1 39.4382 49.2619 16.3752
1 41.6988 50.2824 16.1475
1 44.7066 49.483 16.2228
1 46.862 50.6839 16.2453
1 44.9505 35.4478 20.5731
1 46.0411 33.4052 19.4497
1 47.3123 35.0665 20.8342
1 48.4557 34.286 18.8254
1 49.8441 35.0639 20.7828
1 38.778 38.0553 19.203
1 39.4006 40.2807 20.1439
1 41.1374 38.7748 19.0557
1 42.1004 40.4921 20.2902
1 40.5966 37.316 20.861
1 42.5874 37.1797 18.1038
1 44.6216 38.7231 17.9885
1 44.5442 40.2539 20.2305
1 43.2789 38.1677 20.1597
1 44.8727 36.2554 18.3235
1 47.245 38.8278 18.2058
1 47.0348 40.232 20.3192
1 45.6646 37.903 20.3032
1 47.2069 36.4869 18.7368
1 49.5688 39.0385 18.1342
1 49.5912 40.2818 20.3571
1 48.3222 38.1321 20.318
1 37.0463 43.3686 17.9604
1 36.7831 44.6438 20.1586
1 38.3842 41.1882 18.0061
1 39.5794 43.3498 18.2158
1 39.2653 44.678 20.354
1 37.9017 42.3629 20.176
1 40.8361 41.1398 18.0897
1 42.0481 43.3526 18.2416
1 41.9262 44.643 20.4372
1 40.6036 42.4318 20.3919
1 43.348 41.0362 18.1213
1 44.5664 43.2712 18.3437
1 44.632 44.7592 20.431
1 43.2736 42.5956 20.3353
1 45.8749 41.0265 18.0962
1 47.0726 43.321 18.1858
1 47.0991 44.7984 20.2539
1 45.8624 42.5275 20.2578
1 48.3249 41.2027 18.3106
1 49.6535 43.2805 18.3813
1 49.6363 44.7747 20.4079
1 48.3274 42.5063 20.4098
1 34.2927 47.7466 18.1621
1 34.4992 49.1353 20.2567
1 35.7024 45.4851 18.0415
1 36.8254 47.7635 17.9169
1 36.8753 49.0369 20.3465
1 35.4588 46.8579 20.1649
1 38.289 45.5811 18.0071
1 39.3391 47.7091 18.2612
1 39.3876 49.0795 20.4466
1 38.0104 46.8416 20.2291
1 40.8295 45.5474 18.2979
1 41.9684 47.6812 18.42
1 41.9396 49.0869 20.4468
1 40.5321 46.8607 20.3737
1 43.2734 45.5024 18.3771
1 44.5144 47.7449 18.2085
1 44.3579 49.1265 20.4385
1 43.2042 46.907 20.465
1 45.7455 45.527 18.2772
1 47.0116 47.6479 18.0332
1 46.971 49.1722 20.3513
1 45.779 47.0121 20.2839
1 48.3783 45.4184 18.1953
1 49.5266 47.8247 18.1666
1 49.5635 49.1852 20.2285
1 48.2858 47.0145 20.2224
1 35.6585 50.0635 18.2988
1 38.1399 49.928 18.3594
1 40.702 49.8216 18.3866
1 43.2458 49.7949 18.2365
1 45.8299 49.9979 18.3465
1 48.2208 49.9779 18.2211
1 44.6502 35.9115 24.4861
1 48.6185 34.3758 22.8582
1 47.2372 35.6867 24.4366
1 51.1064 34.382 22.9147
1 49.7588 35.8335 24.5969
1 39.4848 38.9197 22.1584
1 39.2221 40.2564 24.4362
1 41.9661 38.7501 22.2571
1 41.9334 40.3086 24.4653
1 40.6992 38.2507 24.3172
1 43.5575 36.6245 22.2102
1 44.5661 38.754 22.407
1 44.5372 40.1525 24.5214
1 43.2074 38.0276 24.3813
1 46.0325 36.5391 22.418
1 47.0705 38.7886 22.3659
1 47.1185 40.2545 24.4391
1 45.9224 38.0826 24.4334
1 48.5182 36.6974 22.3337
1 49.6076 38.8625 22.4813
1 49.6284 40.2271 24.5304
1 48.3452 37.9356 24.5168
1 37.0964 43.3215 22.3003
1 36.6037 44.6123 24.3686
1 38.298 41.0757 22.2945
1 39.4393 43.2321 22.3961
1 39.2184 44.6621 24.5516
1 37.9243 42.4042 24.3879
1 40.833 40.9401 22.3225
1 41.9496 43.1446 22.403
1 41.8603 44.6187 24.4928
1 40.5258 42.4516 24.4585
1 43.3313 40.9439 22.4301
1 44.5369 43.1551 22.4193
1 44.4576 44.6422 24.5293
1 43.2793 42.4375 24.5103
1 45.8016 40.9904 22.3766
1 47.0782 43.2868 22.3901
1 47.0369 44.7018 24.5608
1 45.813 42.4584 24.5134
1 48.3646 41.03 22.4061
1 49.6262 43.2859 22.4929
1 49.665 44.7157 24.5518
1 48.3773 42.4629 24.4829
1 34.5498 47.7918 22.2848
1 34.4653 49.1294 24.4467
1 35.7596 45.5473 22.177
1 36.9576 47.7071 22.3884
1 36.8472 49.1739 24.4677
1 35.4402 46.8451 24.4742
1 38.1371 45.4775 22.31
1 39.4023 47.6214 22.3912
1 39.3771 49.0778 24.5122
1 37.9359 46.8301 24.5173
1 40.6401 45.4054 22.5347
1 42.0627 47.544 22.4349
1 41.8926 49.0065 24.5495
1 40.4961 46.8626 24.4848
1 43.2119 45.3589 22.4384
1 44.504 47.5797 22.4721
1 44.4589 49.0691 24.5954
1 43.1093 46.813 24.5406
1 45.8087 45.4349 22.4449
1 47.0992 47.699 22.4349
1 47.0485 49.0824 24.5308
1 45.6755 46.8864 24.591
1 48.311 45.5166 22.4164
1 49.6431 47.7222 22.3289
1 49.6011 49.1809 24.5023
1 48.3677 46.9108 24.4705
1 35.644 50.0281 22.2989
1 38.0995 49.9384 22.4151
1 40.6711 49.8697 22.5025
1 43.1954 49.8362 22.6011
1 45.7194 49.7906 22.4895
1 48.2273 49.9574 22.4703
1 44.7675 35.9966 28.5871
1 47.4954 34.5813 26.4591
1 47.2823 35.8508 28.6523
1 49.845 34.3733 26.5402
1 49.8762 35.7154 28.5846
1 39.5528 38.9093 26.4921
1 39.1665 40.2044 28.5769
1 41.9532 38.6151 26.5327
1 41.787 40.2204 28.656
1 40.6249 38.1615 28.658
1 43.5768 36.5615 26.5812
1 44.6067 38.6771 26.5482
1 44.3673 40.2277 28.6266
1 43.1537 37.9708 28.6211
1 46.0394 36.5104 26.4242
1 47.134 38.8525 26.5612
1 47.0873 40.2808 28.849
1 45.8532 38.1472 28.5917
1 48.6166 36.7329 26.6943
1 49.6887 38.8927 26.6244
1 49.6123 40.3274 28.7539
1 48.4092 38.0662 28.7395
1 37.0695 43.4369 26.4517
1 36.7054 44.6303 28.6636
1 38.2809 41.2467 26.5116
1 39.5462 43.272 26.5736
1 39.205 44.6481 28.6758
1 37.9225 42.4574 28.6329
1 40.7532 41.0014 26.5295
1 42.1229 43.2225 26.5813
1 41.8318 44.5978 28.7916
1 40.5224 42.3561 28.6302
1 43.2086 40.8665 26.5679
1 44.5671 43.204 26.5867
1 44.32 44.6259 28.7359
1 43.1748 42.3566 28.6345
1 45.8533 41.0314 26.5864
1 47.0569 43.1889 26.6685
1 47.0281 44.6457 28.6641
1 45.7357 42.3919 28.8178
1 48.3985 41.0926 26.6107
1 49.6014 43.249 26.5473
1 49.6539 44.6598 28.6847
1 48.4046 42.4824 28.7632
1 34.4293 47.7924 26.5363
1 34.4049 49.179 28.6525
1 35.8121 45.5673 26.5545
1 36.7873 47.7814 26.526
1 36.8333 49.191 28.6472
1 35.379 46.871 28.633
1 38.2552 45.5696 26.6265
1 39.3582 47.7345 26.6359
1 39.3334 49.0932 28.7262
1 37.9226 46.8506 28.6785
1 40.7167 45.4301 26.6162
1 41.9182 47.6407 26.6141
1 41.9061 49.1332 28.7622
1 40.474 46.7976 28.6837
1 43.2755 45.4575 26.6635
1 44.4686 47.7105 26.7398
1 44.3683 49.1517 28.8154
1 43.0533 46.8427 28.7621
1 45.7241 45.4304 26.646
1 47.0434 47.6338 26.7001
1 46.9288 49.0957 28.755
1 45.6607 46.8283 28.6915
1 48.3297 45.4396 26.6913
1 49.6258 47.6117 26.5853
1 49.5283 49.0536 28.6784
1 48.2564 46.858 28.7394
1 35.5358 50.1042 26.6228
1 38.0265 49.9096 26.5487
1 40.6265 49.9055 26.6083
1 43.1528 49.8695 26.6233
1 45.8034 49.8747 26.6122
1 48.331 49.8627 26.6106
1 47.4259 34.5416 30.7207
1 49.7862 34.3387 30.6209
1 39.5794 38.9613 30.6719
1 42.0659 38.728 30.7159
1 43.505 36.5659 30.7074
1 44.5898 38.7099 30.7543
1 45.951 36.4899 30.7676
1 47.0952 38.7735 30.7603
1 48.5809 36.6015 30.7706
1 49.6145 38.8704 30.8679
1 37.1097 43.3819 30.7133
1 38.3865 41.1904 30.6737
1 39.5158 43.3498 30.7886
1 40.8418 41.0852 30.787
1 41.9707 43.1703 30.7481
1 43.2698 40.9068 30.7796
1 44.4056 43.1415 30.8906
1 45.8315 40.9644 30.7597
1 46.9722 43.1876 30.8059
1 48.399 41.0229 30.905
1 49.5915 43.327 30.8139
1 34.3495 47.821 30.8017
1 35.6739 45.5332 30.7287
1 36.8518 47.792 30.7407
1 38.1669 45.6067 30.7869
1 39.4264 47.7473 30.8104
1 40.6739 45.4306 30.8106
1 41.8889 47.621 30.8543
1 43.2175 45.3883 30.9201
1 44.4195 47.5593 30.8207
1 45.7389 45.3457 30.7687
1 46.9775 47.6115 30.8487
1 48.2344 45.4689 30.8034
1 49.5302 47.6309 30.8326
1 35.4923 49.9936 30.6567
1 38.0201 49.8671 30.7677
1 40.6501 49.933 30.8229
1 43.1349 49.7914 30.8776
1 45.7472 49.8083 30.8159
1 48.2842 49.8556 30.8273
1 44.7298 35.8555 32.8095
1 47.2073 35.7055 32.8743
1 49.8174 35.6476 32.7676
1 39.1958 40.2542 32.7891
1 42.0124 40.3325 32.8315
1 40.7447 38.2565 32.8006
1 44.4876 40.1537 32.839
1 43.2515 37.8917 32.7795
1 47.0469 40.2739 32.8736
1 45.8293 38.0794 32.8444
1 49.5781 40.3192 32.9155
1 48.3488 37.9022 32.8109
1 36.7093 44.6205 32.8849
1 39.2559 44.6297 32.9269
1 37.9649 42.4057 32.8455
1 41.8301 44.6467 32.9575
1 40.598 42.3862 32.8436
1 44.5515 44.6651 32.9739
1 43.1598 42.4248 32.9991
1 47.0716 44.7057 32.9076
1 45.7672 42.3744 32.8381
1 49.5424 44.7353 32.9517
1 48.2974 42.497 32.9477
1 34.4572 49.0539 32.8868
1 36.8123 49.1422 32.8227
1 35.4667 46.8129 32.8718
1 39.2509 49.1301 32.9198
1 37.9063 46.8323 32.8422
1 41.8411 49.0804 32.9199
1 40.5087 46.8238 32.905
1 44.4418 49.0985 32.89
1 43.1195 46.788 32.916
1 46.9944 49.158 32.9804
1 45.7044 46.9694 32.9239
1 49.4964 49.1603 32.8454
1 48.2779 46.9257 32.8389
1 44.7037 35.9455 36.9279
1 47.3874 34.4346 35.0033
1 47.2604 35.7066 37.1029
1 49.8163 34.3234 34.9842
1 49.8133 35.8337 37.1001
1 39.5399 38.737 34.8721
1 39.3018 40.1924 36.9936
1 42.0669 38.6686 34.9125
1 41.9034 40.2672 37.0778
1 40.7234 38.1983 37.0241
1 43.4731 36.6134 34.8917
1 44.6323 38.7525 34.9191
1 44.5029 40.1453 37.1027
1 43.3074 37.9976 36.9905
1 45.9613 36.445 34.9246
1 47.1083 38.7392 34.8989
1 47.0604 40.2632 37.1292
1 45.9003 38.1057 37.0587
1 48.5425 36.5507 34.9242
1 49.6723 38.79 34.924
1 49.561 40.2547 37.1041
1 48.3488 37.9863 37.0004
1 37.0559 43.2835 34.8991
1 36.6438 44.5834 37.0403
1 38.3318 41.0403 34.9521
1 39.4967 43.2325 34.9353
1 39.2441 44.5602 37.1202
1 37.9944 42.3831 37.1006
1 40.7988 40.8646 34.8336
1 41.9158 43.2501 35.0201
1 41.8478 44.6638 37.159
1 40.528 42.355 37.107
1 43.2606 40.9676 35.0446
1 44.5002 43.1818 35.0394
1 44.4921 44.6661 37.1128
1 43.1541 42.495 37.0926
1 45.8469 40.9471 35.0441
1 47.0373 43.2192 34.9843
1 46.9594 44.7024 37.1052
1 45.665 42.3479 37.1764
1 48.2757 41.0391 35.0341
1 49.5336 43.2548 35.0953
1 49.4551 44.6822 37.1545
1 48.2077 42.5159 37.1455
1 34.4008 47.8008 35.037
1 34.4633 49.1641 37.1368
1 35.7392 45.5536 35.0131
1 36.8829 47.6899 34.9976
1 36.887 49.1694 37.1394
1 35.4503 46.8685 37.112
1 38.1687 45.5015 34.9778
1 39.3672 47.6409 34.9564
1 39.2926 49.0033 37.0748
1 37.9114 46.838 37.1018
1 40.6181 45.4033 35.003
1 41.9204 47.5663 35.0158
1 41.8636 49.0214 37.142
1 40.5076 46.8134 37.0273
1 43.1398 45.3816 34.9973
1 44.4167 47.6312 35.0202
1 44.3832 49.057 37.1258
1 43.095 46.8333 37.1704
1 45.7485 45.4667 35.076
1 46.9046 47.6475 35.0223
1 46.9815 49.194 37.1044
1 45.7038 46.9227 37.1164
1 48.2721 45.4812 35.0483
1 49.5279 47.6844 35.0501
1 49.5011 49.0546 37.2304
1 48.2446 46.8433 37.0748
1 35.5291 49.9194 35.045
1 38.0181 49.8655 35.0123
1 40.6478 49.8274 35.0799
1 43.1927 49.8263 34.9563
1 45.7496 49.7474 35.0255
1 48.3129 49.8996 35.0187
1 44.7358 35.8924 41.1889
1 47.6529 34.4754 39.1554
1 47.32 35.6577 41.2804
1 50.1363 34.427 39.1445
1 49.9037 35.8024 41.2297
1 39.6839 38.9014 39.1271
1 39.3253 40.1962 41.3845
1 42.1227 38.7903 39.1285
1 42.0524 40.1582 41.332
1 40.7167 38.1724 41.2442
1 43.5264 36.5621 39.0857
1 44.6296 38.745 39.1674
1 44.5546 40.2199 41.2453
1 43.2786 37.8498 41.2074
1 46.0142 36.4791 39.1178
1 47.144 38.7126 39.1324
1 47.1206 40.2906 41.372
1 45.8925 38.0631 41.2655
1 48.6101 36.6907 39.2088
1 49.6668 38.8863 39.1536
1 49.6331 40.2442 41.2935
1 48.3773 37.9681 41.2889
1 37.1656 43.3712 39.1362
1 36.8768 44.5461 41.2733
1 38.3339 41.1436 39.1529
1 39.5642 43.289 39.287
1 39.3108 44.5678 41.3361
1 38.0084 42.3608 41.2901
1 40.8025 41.0487 39.1481
1 42.0069 43.2325 39.241
1 41.8553 44.6219 41.3173
1 40.5512 42.3971 41.3212
1 43.3525 40.9765 39.1755
1 44.494 43.1844 39.3379
1 44.4432 44.7999 41.4068
1 43.2092 42.4245 41.3576
1 45.86 41.0091 39.2086
1 47.0142 43.2454 39.3177
1 46.9592 44.7014 41.2901
1 45.717 42.4734 41.3134
1 48.3445 41.0666 39.2537
1 49.5633 43.2564 39.1787
1 49.5025 44.7093 41.2702
1 48.2417 42.5013 41.3024
1 34.4872 47.8167 39.2413
1 34.533 49.1438 41.315
1 35.6949 45.499 39.1855
1 36.887 47.6454 39.2225
1 36.925 49.0943 41.3086
1 35.4672 46.7863 41.2466
1 38.2172 45.4923 39.1925
1 39.4417 47.7322 39.1298
1 39.4416 49.0902 41.3035
1 38.0586 46.8515 41.3872
1 40.6573 45.4186 39.2275
1 41.9369 47.6191 39.1988
1 41.9539 49.1211 41.325
1 40.6592 46.8187 41.2961
1 43.2252 45.4545 39.2393
1 44.4318 47.5907 39.2974
1 44.4694 49.0541 41.3207
1 43.1406 46.8373 41.3242
1 45.7516 45.389 39.2627
1 47.0363 47.6737 39.2044
1 47.0356 49.007 41.2985
1 44.5357 47.6332 43.392
1 50.6888 45.5394 39.093
1 49.4826 47.5904 39.2447
1 49.5482 49.0619 41.2567
1 45.8736 46.8647 41.2646
1 35.6489 50.0081 39.2382
1 38.1592 49.8965 39.2477
1 40.6754 49.8892 39.1763
1 43.1961 49.8603 39.2458
1 45.779 49.7603 39.2364
1 48.3637 49.937 39.2793
1 47.6941 34.4017 43.4045
1 50.1456 34.4509 43.3934
1 39.6897 38.8234 43.3491
1 42.124 38.5518 43.4257
1 43.5996 36.521 43.3683
1 44.6378 38.8105 43.4444
1 46.0564 36.5219 43.3805
1 47.1526 38.7827 43.3741
1 48.5903 36.619 43.3672
1 49.6085 38.8649 43.388
1 37.2219 43.4493 43.3718
1 38.4328 41.1528 43.4052
1 39.574 43.3024 43.415
1 40.8892 41.0002 43.3493
1 42.0081 43.2434 43.3904
1 43.2963 40.9194 43.3976
1 44.5578 43.1522 43.4159
1 45.8442 41.0843 43.4365
1 47.1321 43.2145 43.4258
1 48.4392 41.0341 43.4308
1 49.6441 43.2686 43.3309
1 34.6487 47.8025 43.4131
1 35.9271 45.6468 43.3566
1 37.005 47.7977 43.4999
1 38.3083 45.4974 43.534
1 39.4942 47.7237 43.4359
1 40.7199 45.4629 43.4558
1 41.9719 47.6943 43.4759
1 43.2889 45.4384 43.4867
1 45.7632 46.8303 45.544
1 45.8359 45.369 43.4725
1 47.0188 47.6052 43.4363
1 48.4016 45.5185 43.3224
1 49.5744 47.696 43.3607
1 35.6453 50.0375 43.4238
1 38.2051 49.9835 43.4299
1 40.7087 49.9149 43.4787
1 43.289 49.8446 43.4595
1 45.7828 49.8208 43.3327
1 48.2545 49.8538 43.4367
1 44.8279 36.0177 45.4349
1 47.296 35.7783 45.3838
1 49.8764 35.7296 45.4839
1 39.325 40.1588 45.5004
1 41.995 40.2902 45.5231
1 40.7371 38.2059 45.5137
1 44.4897 40.1085 45.5674
1 43.2614 37.9108 45.5379
1 47.1163 40.2477 45.4912
1 45.9181 38.0775 45.4887
1 49.6583 40.3371 45.4693
1 48.3685 37.9827 45.4626
1 36.697 44.5659 45.4619
1 39.248 44.6513 45.5039
1 38.0671 42.4759 45.5142
1 41.8781 44.5343 45.4798
1 40.5918 42.3149 45.4708
1 44.5298 44.6339 45.5664
1 43.28 42.4151 45.5265
1 47.0252 44.6837 45.5702
1 45.7718 42.4055 45.5279
1 49.614 44.6622 45.4652
1 48.3295 42.4905 45.5106
1 34.5523 49.1346 45.4689
1 36.8937 49.0783 45.5476
1 35.4995 46.7852 45.4791
1 39.4157 49.0862 45.527
1 38.0011 46.8811 45.551
1 41.947 49.0443 45.5548
1 40.6653 46.792 45.5294
1 44.495 49.1672 45.5374
1 43.2274 46.8688 45.5787
1 48.2827 51.3531 45.5008
1 46.9521 49.1481 45.5452
1 49.5577 49.0885 45.4478
1 48.3458 46.8645 45.5013
1 44.711 35.9512 49.7226
1 47.508 34.4493 47.5401
1 47.2716 35.6303 49.6654
1 49.8946 34.3163 47.4817
1 49.7627 35.8071 49.5539
1 39.7218 38.9116 47.658
1 39.3509 40.2863 49.6576
1 42.087 38.7208 47.568
1 41.9066 40.2127 49.6508
1 40.7863 38.1085 49.7015
1 43.5392 36.5344 47.6167
1 44.6654 38.715 47.6525
1 44.4573 40.1976 49.7793
1 43.2271 37.9965 49.6993
1 46.0641 36.4912 47.6035
1 47.1259 38.7448 47.6789
1 47.0496 40.2241 49.7048
1 45.8664 37.9626 49.7827
1 48.5337 36.6326 47.478
1 49.6461 38.8104 47.5964
1 49.6328 40.322 49.698
1 48.4307 38.0152 49.6985
1 37.0287 43.304 47.6189
1 36.6944 44.5745 49.7865
1 38.3489 41.1657 47.5941
1 39.5902 43.1936 47.6104
1 39.2726 44.5554 49.7297
1 38.0183 42.3916 49.6645
1 40.9059 40.97 47.5485
1 42.0382 43.1361 47.5828
1 41.8357 44.5948 49.7125
1 40.5547 42.3059 49.7182
1 43.3614 40.8915 47.6879
1 44.5103 43.1808 47.5308
1 44.4702 44.6825 49.6905
1 43.1986 42.448 49.6747
1 45.8445 40.9376 47.6247
1 47.0468 43.235 47.6208
1 47.0406 44.6263 49.6723
1 45.7624 42.4314 49.7193
1 48.4042 41.0517 47.5616
1 49.6309 43.2462 47.6198
1 49.5583 44.6407 49.7392
1 48.3663 42.381 49.7083
1 34.5451 47.8191 47.5579
1 34.4771 49.1285 49.7419
1 35.891 45.5225 47.5951
1 36.919 47.7503 47.5788
1 36.9014 49.1741 49.6468
1 35.5304 46.8211 49.6547
1 38.2309 45.4652 47.5884
1 39.3496 47.7033 47.6735
1 39.4019 49.0573 49.7036
1 37.9969 46.8267 49.6965
1 40.7101 45.4519 47.6381
1 41.8179 47.6156 47.6
1 41.8758 49.1112 49.7538
1 40.6205 46.7979 49.779
1 43.143 45.4267 47.6141
1 44.3874 47.6559 47.6794
1 44.5365 49.1122 49.7593
1 43.1969 46.833 49.7225
1 45.7156 45.401 47.6838
1 47.0225 47.6054 47.6232
1 47.0727 49.1119 49.7604
1 45.6815 46.8745 49.7442
1 48.3043 45.4044 47.5678
1 49.6328 47.6316 47.5998
1 50.7966 49.84 51.8044
1 48.3097 46.8657 49.6777
1 35.5911 50.0676 47.6572
1 38.134 49.9821 47.6155
1 40.7313 49.9367 47.5812
1 43.2228 49.7968 47.6851
1 45.8302 49.825 47.637
1 49.5866 49.0806 49.7286
1 44.7461 35.8826 53.9287
1 48.7896 34.1762 51.3106
1 47.292 35.8726 53.9133
1 51.1495 34.3202 50.9392
1 49.9384 36.0696 53.9019
1 39.6194 38.8912 51.7132
1 39.352 40.1501 53.9012
1 42.1272 38.6947 51.8592
1 41.8107 40.1693 53.8833
1 40.6583 37.8979 53.8084
1 43.5547 36.6627 51.8183
1 44.6231 38.7972 51.7753
1 43.1908 38.1015 53.9213
1 42.2727 35.9313 53.9371
1 46.106 36.4313 51.7611
1 47.1931 38.7651 51.8341
1 47.0684 40.3374 53.8908
1 45.8182 38.0811 53.8506
1 48.5897 36.5158 51.8236
1 49.7144 38.7868 51.747
1 49.6039 40.3554 53.9145
1 48.3501 38.0548 53.8203
1 37.1816 43.3668 51.8474
1 36.784 44.6155 53.9183
1 38.3392 41.0937 51.8403
1 39.5859 43.2295 51.8425
1 39.2652 44.6318 53.9587
1 38.1179 42.3855 53.945
1 40.8528 40.9743 51.7695
1 42.0065 43.1183 51.8336
1 41.8571 44.6057 53.9237
1 40.646 42.3637 53.9254
1 43.2618 40.9341 51.7429
1 44.4918 43.19 51.7451
1 44.4312 44.7211 53.8796
1 43.2222 42.3227 53.8722
1 45.8538 41.0453 51.8441
1 47.0781 43.2107 51.8867
1 45.7422 42.5021 53.9061
1 44.469 40.2047 53.8767
1 48.34 41.0092 51.7979
1 49.6127 43.1955 51.796
1 49.6613 44.7432 53.8724
1 48.3822 42.479 53.8632
1 34.515 47.7691 51.8039
1 34.5024 49.0547 53.9944
1 35.8265 45.5557 51.8356
1 36.9003 47.7495 51.8491
1 36.8405 49.0728 54.0321
1 35.4287 46.8598 53.9445
1 38.3105 45.5429 51.8224
1 39.4295 47.6988 51.8415
1 39.3096 49.127 53.9317
1 38.0311 46.8398 53.907
1 40.712 45.3707 51.8522
1 41.9776 47.5908 51.7847
1 41.8796 49.09 53.8695
1 40.6407 46.8499 53.891
1 43.2525 45.3859 51.7545
1 44.5347 47.6519 51.8978
1 44.5542 49.1447 53.937
1 43.2025 46.8987 53.9323
1 45.804 45.4201 51.7603
1 47.0016 47.5776 51.7977
1 47.0327 49.1212 53.8736
1 45.7113 46.7711 53.9101
1 48.2703 45.3562 51.8086
1 49.5912 47.6306 51.7394
1 48.331 46.9211 53.8682
1 47.0449 44.6895 53.9127
1 35.5357 49.9821 51.8414
1 38.0866 49.9002 51.8385
1 40.622 49.8389 51.8585
1 43.2104 49.8005 51.7744
1 45.7669 49.8934 51.8591
1 48.2746 49.9289 51.7944
1 44.7331 35.9962 58.1394
1 48.7775 33.9852 53.687
1 47.2884 35.7706 58.1106
1 49.8609 34.3854 55.9411
1 49.7663 35.8042 58.1556
1 39.8898 39.0417 55.9906
1 39.4113 40.2055 58.1422
1 42.2993 38.8921 56.0765
1 41.9893 40.2547 58.1672
1 40.7669 37.9212 58.1725
1 41.1084 36.7835 56.016
1 43.5012 36.5034 56.0107
1 44.5195 40.1833 58.0959
1 43.2756 37.9162 58.0948
1 45.9944 36.4267 56.0292
1 47.2139 38.6777 55.9709
1 47.1697 40.3268 58.0547
1 45.8988 38.112 58.1787
1 48.4705 36.491 55.9723
1 49.7527 38.8048 55.9745
1 49.6635 40.2698 58.0035
1 48.5086 37.9696 58.1002
1 37.166 43.4456 56.0332
1 36.7761 44.5867 58.1252
1 38.5549 41.2221 56.0151
1 39.6459 43.3597 55.9927
1 39.3707 44.6983 58.2211
1 38.1653 42.4983 58.1679
1 40.9577 41.1378 56.0579
1 42.0716 43.24 55.9916
1 41.9118 44.6355 58.0815
1 40.6864 42.4188 58.1016
1 43.3937 40.9892 55.974
1 44.5563 43.2616 55.9517
1 44.4864 44.6743 58.1152
1 43.2651 42.4262 58.1127
1 44.7141 38.735 55.9734
1 45.8871 40.9823 56.0572
1 47.1189 44.7356 58.0598
1 45.8182 42.5129 58.0224
1 48.3883 41.0531 55.9862
1 49.6779 43.1618 56.0411
1 49.6914 44.7512 58.0662
1 48.4279 42.5012 58.091
1 34.5621 47.7869 56.0632
1 34.4368 49.227 58.1187
1 35.8402 45.5631 56.0045
1 36.9731 47.6892 56.0142
1 36.7634 49.0703 58.1137
1 35.5313 46.8363 58.1682
1 38.3231 45.5268 56.0694
1 39.3979 47.6515 56.0144
1 39.3468 49.0601 58.084
1 38.0272 46.8668 58.1716
1 40.7831 45.4893 55.9577
1 41.8626 47.6202 55.9988
1 41.9932 49.0925 58.0824
1 40.586 46.9294 58.1534
1 43.1982 45.4294 55.984
1 44.5175 47.5469 56.0128
1 44.4986 49.089 58.1026
1 43.2412 46.8487 58.0834
1 45.8536 45.4408 56.0166
1 47.115 47.669 55.9545
1 47.1246 49.1251 58.0919
1 45.8102 46.8494 58.1509
1 47.0667 43.2247 55.9901
1 48.386 45.4603 55.9679
1 49.6803 49.1405 58.0364
1 48.3016 46.9607 58.0675
1 35.5152 50.1604 56.0672
1 38.0824 49.9273 56.0561
1 40.709 49.854 56.075
1 43.2309 49.8194 55.9749
1 45.7558 49.898 56.0216
1 48.3364 49.8167 55.9981
1 44.9777 36.0498 62.24
1 47.7273 34.6073 60.2389
1 47.4122 35.7422 62.3741
1 50.102 34.441 60.0331
1 49.9101 35.7064 62.284
1 39.8195 38.8652 60.2962
1 39.4886 40.2093 62.3639
1 42.196 38.6417 60.2379
1 42.1303 40.2688 62.3085
1 40.8886 38.1483 62.3592
1 43.6064 36.6222 60.3244
1 44.6951 38.7841 60.1974
1 44.6124 40.2824 62.2559
1 43.3097 37.9768 62.3462
1 46.2204 36.6132 60.2466
1 47.3531 38.8146 60.1439
1 47.2351 40.3204 62.1895
1 45.972 38.2155 62.2527
1 48.7968 36.7347 60.2941
1 49.853 38.9973 60.1356
1 49.7294 40.3102 62.2502
1 48.4804 38.0646 62.275
1 37.3476 43.4159 60.2654
1 36.9206 44.6109 62.3268
1 38.5839 41.1465 60.275
1 39.8322 43.4005 60.1807
1 39.4741 44.7 62.3563
1 38.2203 42.4081 62.3054
1 40.9877 41.0307 60.2619
1 42.2137 43.284 60.1719
1 42.0997 44.7086 62.2663
1 40.7435 42.5024 62.3249
1 43.4509 40.9715 60.1839
1 44.6977 43.1419 60.1448
1 44.6873 44.6874 62.2219
1 43.3043 42.5174 62.2279
1 46.0198 41.0468 60.1596
1 47.1877 43.2602 60.0606
1 47.193 44.7551 62.1437
1 45.9159 42.4996 62.1988
1 48.5075 41.1507 60.161
1 49.8261 43.2796 60.1552
1 49.8587 44.7821 62.2117
1 48.52 42.55 62.2175
1 34.6184 47.8237 60.2798
1 34.5321 49.1703 62.4634
1 35.9095 45.6001 60.2873
1 37.0493 47.7481 60.2738
1 36.9251 49.133 62.3672
1 35.5792 46.8442 62.369
1 38.3396 45.6207 60.306
1 39.5365 47.7365 60.263
1 39.4377 49.1175 62.317
1 38.1712 46.8364 62.3525
1 40.8744 45.5815 60.2328
1 42.0773 47.6632 60.2139
1 42.002 49.1928 62.3464
1 40.7717 47.0066 62.3545
1 43.3976 45.4878 60.1827
1 44.6512 47.662 60.1533
1 44.5969 49.1634 62.3543
1 43.3944 46.9881 62.2595
1 45.8487 45.4195 60.1035
1 47.1135 47.6097 60.1918
1 47.1671 49.1263 62.2528
1 45.9337 46.9603 62.2729
1 48.4931 45.4841 60.1481
1 49.7558 47.5897 60.1397
1 49.6773 49.158 62.2774
1 48.4972 46.9673 62.2274
1 35.8353 50.0705 60.2671
1 38.312 49.9725 60.213
1 40.8172 49.8725 60.1781
1 43.3565 49.8713 60.2568
1 45.8913 49.9026 60.2472
1 48.3977 49.7497 60.2096
1 44.8585 36.054 66.5571
1 47.4148 34.3099 64.4014
1 47.4036 35.78 66.4488
1 49.6898 34.438 64.4113
1 49.9728 35.7558 66.5288
1 39.859 38.8361 64.4502
1 39.4897 40.1577 66.6135
1 42.2616 38.6675 64.4769
1 42.1392 40.2779 66.5299
1 40.9351 38.2241 66.654
1 43.8339 36.6596 64.4026
1 44.7723 38.8831 64.3342
1 44.7047 40.3146 66.5127
1 43.4239 38.0378 66.6086
1 46.1894 36.6777 64.4033
1 47.2676 38.8922 64.3969
1 47.2388 40.3371 66.3737
1 45.9773 38.1066 66.4944
1 48.6562 36.6375 64.3625
1 49.772 38.8457 64.3385
1 49.8357 40.3388 66.354
1 48.4751 38.0435 66.4294
1 37.2034 43.3283 64.4422
1 36.9691 44.5661 66.5784
1 38.5404 41.1354 64.4506
1 39.7059 43.292 64.4501
1 39.449 44.7029 66.5466
1 38.2642 42.4251 66.56
1 40.9893 40.9977 64.4952
1 42.1495 43.2534 64.4479
1 41.9868 44.7093 66.5271
1 40.7435 42.4081 66.5648
1 43.4104 41.0285 64.4175
1 44.69 43.2625 64.2373
1 44.6158 44.6481 66.4318
1 43.3502 42.4926 66.4543
1 45.9641 41.0948 64.2639
1 47.2687 43.3125 64.3284
1 47.1781 44.796 66.4273
1 45.9574 42.5336 66.412
1 48.5162 41.0721 64.3674
1 49.8401 43.2846 64.2867
1 49.7415 44.8037 66.4084
1 48.4638 42.539 66.377
1 34.7008 47.8475 64.4767
1 34.6979 49.2479 66.5662
1 36.0771 45.6374 64.428
1 37.176 47.8333 64.4979
1 37.1381 49.2364 66.5313
1 35.739 46.8784 66.6062
1 38.4593 45.5853 64.4827
1 39.6267 47.7129 64.4528
1 39.5468 49.11 66.4968
1 38.1811 46.9201 66.6236
1 40.904 45.5186 64.3963
1 42.2231 47.6985 64.415
1 42.1172 49.1584 66.5261
1 40.7931 46.8937 66.5712
1 43.4057 45.4429 64.3909
1 44.6689 47.6699 64.3444
1 44.6856 49.1718 66.4827
1 43.3619 46.9198 66.4315
1 45.8853 45.4712 64.3429
1 47.2165 47.6989 64.4081
1 47.2396 49.1845 66.4206
1 45.9332 46.9769 66.4567
1 48.4428 45.4773 64.2559
1 49.7809 47.6969 64.2537
1 49.7666 49.1879 66.4169
1 48.5351 46.9621 66.3927
1 35.7369 50.1058 64.4596
1 38.2617 49.9974 64.3727
1 40.769 49.9634 64.4191
1 43.3679 49.9428 64.4849
1 45.8999 49.8765 64.3803
1 48.4609 49.9187 64.2751
1 44.9474 36.1382 70.7493
1 47.5197 34.431 68.624
1 47.5236 35.7966 70.6668
1 49.8294 34.5458 68.6429
1 50.0057 35.8519 70.6682
1 39.8159 38.8992 68.7624
1 39.5356 40.3429 70.8398
1 42.3136 38.7331 68.6908
1 42.2632 40.3282 70.7811
1 40.9449 38.3133 70.9399
1 43.7529 36.7068 68.666
1 44.8475 38.8451 68.6449
1 44.83 40.2965 70.728
1 43.511 38.1165 70.8947
1 46.2591 36.5554 68.6071
1 47.3883 38.7821 68.5872
1 47.3951 40.3388 70.5758
1 46.1295 38.1707 70.6817
1 48.8178 36.6987 68.4844
1 49.8757 38.9293 68.4827
1 49.8727 40.3806 70.6287
1 48.6318 38.0055 70.6076
1 37.3076 43.4234 68.6012
1 37.0686 44.658 70.7136
1 38.5121 41.1451 68.6158
1 39.7709 43.3287 68.6401
1 39.5292 44.6445 70.7901
1 38.1201 42.4139 70.7418
1 41.0482 41.0426 68.6791
1 42.3261 43.2141 68.6304
1 42.1388 44.6572 70.7422
1 40.7966 42.4627 70.7545
1 43.5704 41.0263 68.6519
1 44.7722 43.2271 68.5431
1 44.7048 44.7801 70.5779
1 43.4809 42.5368 70.7185
1 46.1114 41.0353 68.4624
1 47.2915 43.3495 68.5862
1 47.2452 44.8373 70.6279
1 46.0291 42.5217 70.618
1 48.625 41.1049 68.4565
1 49.8402 43.3071 68.4179
1 49.9009 44.8185 70.5476
1 48.5256 42.5806 70.6459
1 34.8163 47.9113 68.6744
1 34.7898 49.2267 70.7673
1 36.0724 45.5982 68.6964
1 37.1528 47.854 68.6616
1 37.1974 49.2703 70.7237
1 35.8092 46.8923 70.6796
1 38.5208 45.526 68.6331
1 39.6341 47.815 68.6821
1 39.653 49.182 70.7495
1 38.2525 46.9164 70.6735
1 40.9629 45.511 68.6474
1 42.1319 47.627 68.6198
1 42.1673 49.1621 70.7739
1 40.9149 46.8324 70.7175
1 43.4372 45.4728 68.5703
1 44.6745 47.7126 68.5697
1 44.6855 49.1625 70.6885
1 43.403 46.9327 70.7022
1 45.9811 45.4472 68.5885
1 47.2241 47.7273 68.569
1 47.2134 49.216 70.5895
1 45.9748 47.043 70.6327
1 48.534 45.4679 68.5232
1 49.7695 47.7488 68.4362
1 49.9002 49.1879 70.5663
1 48.7008 46.9598 70.5426
1 35.8129 50.0992 68.6606
1 38.3876 50.0058 68.6043
1 40.9934 49.9495 68.6776
1 43.4624 49.8825 68.6068
1 45.9883 49.9325 68.4998
1 48.5703 49.9762 68.4776
1 44.9422 36.1594 75.0024
1 47.6711 34.628 72.7971
1 47.3971 35.8394 74.9253
1 50.0675 34.476 72.707
1 49.9498 35.8412 74.8265
1 39.8483 39.0223 73.0124
1 39.6063 40.4314 75.1838
1 42.3042 38.7861 73.012
1 42.2688 40.3997 74.9891
1 40.93 38.4155 75.2611
1 43.7649 36.6252 72.9051
1 44.9069 38.804 72.8651
1 44.8557 40.462 74.9606
1 43.4594 38.1305 75.0173
1 46.2186 36.6707 72.7938
1 47.3897 38.9262 72.7081
1 47.4604 40.3776 74.8463
1 46.1404 38.2676 74.8144
1 48.7345 36.8168 72.8126
1 49.922 38.9753 72.8005
1 49.9521 40.4164 74.7933
1 48.665 38.0084 74.8954
1 37.2713 43.3004 72.9433
1 37.0826 44.8253 74.9578
1 38.6734 41.2676 72.9983
1 39.8436 43.3712 72.8628
1 39.7845 44.7482 74.9802