5538
Atoms. Timestep: 90000
1 46.9063 40.9716 8.75667
1 47.4935 38.598 8.93942
1 46.4552 37.1932 10.7094
1 49.2312 37.394 7.56381
1 48.6784 36.4585 9.82625
1 42.3141 40.0257 8.82768
1 40.2952 41.6272 9.03981
1 43.2319 39.6429 11.0556
1 42.7844 42.38 9.16356
1 44.473 40.7437 8.08913
1 45.3984 42.9316 8.7462
1 41.8515 41.0877 12.5356
1 46.0752 40.0754 11.8915
1 47.5496 43.036 9.88258
1 45.2935 39.2704 9.85447
1 48.1667 40.0313 10.6839
1 47.2048 40.8481 13.8464
1 44.6903 38.0559 12.092
1 45.7335 35.8231 12.6997
1 49.7686 37.0365 13.3483
1 47.682 38.2337 12.3235
1 48.2004 35.8351 12.1208
1 39.5994 46.2618 9.71675
1 36.6426 44.3081 9.75935
1 38.4109 43.0261 8.5967
1 39.7432 41.9913 11.4243
1 40.3425 44.8136 12.3464
1 38.8744 44.0867 10.6883
1 40.7542 39.8924 10.7401
1 41.8065 43.1339 11.3087
1 41.9076 45.7659 10.3086
1 40.7526 43.9768 9.32645
1 44.6722 41.6461 10.7058
1 47.088 43.9928 14.1931
1 43.9002 44.1606 10.3954
1 43.8382 42.5852 12.6482
1 45.3706 42.2381 14.5422
1 47.9064 44.552 11.9007
1 46.2713 45.0862 9.91431
1 46.4588 42.4809 12.1964
1 49.2581 40.048 12.8436
1 50.2089 44.1438 11.57
1 48.4579 46.2897 9.7693
1 48.8707 42.2293 11.7464
1 37.8948 48.0049 10.1441
1 38.8545 50.2308 9.85072
1 39.3071 44.9719 7.71245
1 35.8835 46.544 10.5985
1 35.0019 46.1173 12.7984
1 37.4589 46.155 8.58411
1 37.2021 45.1916 12.05
1 40.4837 48.5919 10.4604
1 38.7952 49.369 12.1611
1 38.9958 46.9606 11.9737
1 41.1929 45.7903 14.2514
1 43.126 48.8185 11.6425
1 42.4235 52.5134 11.9468
1 41.5533 47.2463 12.2392
1 42.9218 45.2197 12.3686
1 44.5452 48.1853 7.98039
1 44.6455 49.6314 9.83203
1 42.5843 47.9631 9.44228
1 44.2337 46.451 9.80606
1 45.4105 44.6652 12.2007
1 46.0921 49.0891 11.69
1 46.3042 47.5731 9.7011
1 49.4473 44.9485 13.943
1 49.5311 46.5219 12.006
1 49.616 49.2215 14.1422
1 46.9522 46.7941 11.8986
1 36.3223 48.7179 11.8807
1 35.8629 50.3933 13.6001
1 41.2665 50.3525 11.9571
1 44.0154 52.0204 10.0739
1 44.5565 46.988 12.0775
1 48.5025 48.6345 12.2048
1 41.6951 35.0068 17.8324
1 47.0403 32.6959 17.2803
1 44.9832 34.2116 17.2138
1 49.3402 33.4094 16.6524
1 49.3309 35.4255 15.2661
1 40.2637 36.9009 17.2409
1 39.6413 39.1975 16.9104
1 41.581 37.2287 15.2418
1 40.4223 39.3116 14.681
1 42.2286 35.9508 20.1087
1 43.3035 35.7441 16.1899
1 42.5298 38.7103 13.4114
1 44.2606 40.3292 13.3942
1 43.4902 36.4181 13.571
1 43.473 33.8998 19.1029
1 46.0829 37.3399 16.359
1 45.9572 38.5456 14.0431
1 45.3469 35.3861 14.9787
1 47.263 35.1049 16.5433
1 48.5884 37.2904 16.6402
1 48.5013 38.6709 14.6781
1 47.4197 36.498 14.3594
1 35.1705 43.667 16.238
1 38.3661 43.3191 13.1813
1 37.2549 39.2291 17.316
1 38.348 42.5858 15.6784
1 38.7561 45.6148 14.0894
1 36.3831 41.3843 16.3617
1 38.0881 40.1369 15.1233
1 40.836 42.537 16.0959
1 41.8022 43.3763 13.9602
1 39.8681 41.5873 13.9885
1 42.1847 39.2244 16.6718
1 43.3546 42.7007 16.0903
1 44.0296 44.3967 14.3694
1 42.212 40.8561 14.8866
1 43.985 38.1014 15.4574
1 47.1949 42.09 16.116
1 45.5793 44.045 16.2309
1 44.4608 40.3969 15.8985
1 46.7352 39.6977 15.9673
1 48.6852 43.944 16.241
1 51.7281 44.5023 13.4744
1 49.1393 42.3186 14.1944
1 34.1949 45.3383 14.8801
1 33.6191 47.656 15.7263
1 36.0814 44.0886 13.8972
1 35.8744 46.7697 15.7318
1 35.7378 49.2509 15.855
1 34.8601 48.2757 13.7804
1 37.2984 44.7566 15.8332
1 38.197 47.1707 15.9364
1 37.8181 49.2304 14.4454
1 37.0481 47.1657 13.6125
1 39.7758 44.662 16.1064
1 40.7213 46.9615 16.3153
1 42.1838 48.9603 13.9478
1 40.0292 47.9391 14.0463
1 42.271 44.842 16.2329
1 42.7762 48.1541 16.1414
1 44.6357 48.9242 13.7513
1 43.3234 46.8356 14.1131
1 44.3478 46.1812 16.1919
1 46.0537 47.8713 15.6248
1 47.0376 49.4074 13.9519
1 45.7706 46.1523 14.0559
1 47.2161 45.8184 16.1148
1 49.5345 46.4022 16.0447
1 48.2937 48.639 16.1183
1 48.1402 47.0755 14.1192
1 33.6553 49.8186 16.8963
1 37.5473 50.8337 16.2563
1 39.4538 49.2449 16.2855
1 41.669 50.3389 16.1141
1 44.6692 49.4786 16.2162
1 46.8527 50.6971 16.1114
1 44.6974 35.4852 20.4333
1 45.9713 33.5268 19.3123
1 47.1634 35.1222 20.7105
1 48.3967 34.2809 18.7194
1 49.7413 34.9841 20.7484
1 38.6946 38.0829 18.9366
1 39.2998 40.1641 20.143
1 40.9924 38.7408 18.9285
1 42.0031 40.3879 20.2502
1 40.4181 37.3338 20.6003
1 42.5438 37.1873 17.9871
1 44.5121 38.7616 17.9013
1 44.5798 40.2921 20.0277
1 43.1683 38.2215 20.1324
1 44.8773 36.3371 18.1826
1 47.0891 38.9488 18.136
1 47.1107 40.3266 20.2812
1 45.7566 37.91 20.1485
1 47.2455 36.4014 18.6547
1 49.5528 39.0942 18.0734
1 49.6326 40.2428 20.2775
1 48.3196 38.0932 20.1476
1 37.0109 43.2458 17.8547
1 36.748 44.5816 20.0518
1 38.399 41.1655 18.0013
1 39.4589 43.308 18.1773
1 39.2565 44.7155 20.2947
1 37.9353 42.2963 20.1379
1 40.7876 41.0911 18.0161
1 42.0446 43.2906 18.1925
1 41.8467 44.6374 20.4263
1 40.531 42.4182 20.219
1 43.2601 41.018 18.0275
1 44.5156 43.3158 18.2423
1 44.6061 44.7209 20.3064
1 43.2581 42.4902 20.2809
1 45.8355 41.0526 17.9673
1 47.0761 43.3477 18.1774
1 47.0115 44.7562 20.258
1 45.8056 42.414 20.1765
1 48.3304 41.2275 18.2268
1 49.6559 43.3441 18.3079
1 49.603 44.8589 20.3172
1 48.3665 42.6004 20.3233
1 34.3 47.681 18.1943
1 34.4323 49.1553 20.2601
1 35.7141 45.5811 17.8714
1 36.8307 47.8319 17.8959
1 36.8375 49.0154 20.2906
1 35.5223 46.7256 20.1225
1 38.1688 45.589 17.9272
1 39.3706 47.6949 18.2803
1 39.3662 49.1292 20.3085
1 37.9375 46.8687 20.1771
1 40.7442 45.4819 18.2613
1 41.9655 47.6809 18.358
1 41.9653 49.1179 20.2845
1 40.5436 46.8573 20.3337
1 43.2634 45.4808 18.4006
1 44.4022 47.6853 18.1256
1 44.4365 49.1001 20.3461
1 43.2239 46.8848 20.4988
1 45.8254 45.4678 18.1658
1 46.9616 47.6466 18.0046
1 46.9214 49.1475 20.2996
1 45.7101 46.8815 20.2536
1 48.392 45.5488 18.1926
1 49.5812 47.7134 18.2631
1 49.4957 49.1679 20.2879
1 48.2468 46.9964 20.2991
1 35.5768 49.9723 18.2776
1 38.1041 49.9172 18.2826
1 40.6552 49.8388 18.3279
1 43.1218 49.837 18.1328
1 45.7268 49.9906 18.2711
1 48.2493 49.9432 18.2117
1 44.5722 35.9666 24.42
1 48.5386 34.3668 22.8104
1 47.0819 35.6514 24.3617
1 51.0363 34.2666 22.8547
1 49.7224 35.8768 24.4085
1 39.4707 38.8501 22.3289
1 39.3042 40.1951 24.3926
1 41.8406 38.6865 22.2196
1 42.0067 40.2514 24.3703
1 40.6893 38.1621 24.3772
1 43.4147 36.7204 22.1933
1 44.4699 38.862 22.1879
1 44.5423 40.1809 24.3873
1 43.1976 37.9557 24.3225
1 45.8125 36.554 22.3372
1 47.0037 38.8108 22.2528
1 47.0197 40.2523 24.3766
1 45.8 38.1017 24.3658
1 48.3366 36.7333 22.215
1 49.6375 38.8536 22.3352
1 49.5659 40.2354 24.4068
1 48.3302 37.9268 24.383
1 37.1131 43.3781 22.2091
1 36.6174 44.5817 24.4879
1 38.3541 41.0859 22.3052
1 39.5005 43.2579 22.2986
1 39.1674 44.6401 24.445
1 37.9499 42.418 24.3676
1 40.793 40.9415 22.2819
1 41.9711 43.1539 22.3893
1 41.776 44.6103 24.4775
1 40.5541 42.3617 24.4187
1 43.2528 41.0152 22.2641
1 44.517 43.2584 22.3573
1 44.4502 44.651 24.5397
1 43.1957 42.4473 24.4644
1 45.7457 41.0698 22.2803
1 47.0656 43.2546 22.2919
1 47.032 44.6345 24.3979
1 45.8136 42.4687 24.3788
1 48.25 41.0122 22.3482
1 49.504 43.3179 22.4677
1 49.5565 44.7698 24.5026
1 48.3173 42.4854 24.4533
1 34.5734 47.7366 22.1994
1 34.3936 49.0195 24.3849
1 35.8843 45.5334 22.3347
1 36.9189 47.7274 22.4093
1 36.7784 49.1251 24.444
1 35.4198 46.7855 24.4277
1 38.2278 45.5727 22.3908
1 39.3633 47.6911 22.3588
1 39.2861 49.0886 24.4203
1 37.9668 46.8486 24.4816
1 40.6263 45.4031 22.3633
1 41.8909 47.6057 22.4619
1 41.8981 49.1346 24.4674
1 40.5462 46.8823 24.4384
1 43.1665 45.3967 22.535
1 44.5581 47.6718 22.4686
1 44.4469 49.1157 24.5856
1 43.1549 46.8948 24.5193
1 45.7207 45.4682 22.4159
1 47.0253 47.6929 22.437
1 46.9751 49.2019 24.5279
1 45.7695 46.9052 24.5832
1 48.3708 45.4576 22.3339
1 49.5868 47.7159 22.437
1 49.5095 49.1638 24.5531
1 48.2935 46.9305 24.4929
1 35.577 50.0382 22.2754
1 38.0406 49.9536 22.314
1 40.578 49.8421 22.3624
1 43.1697 49.8237 22.4402
1 45.7559 49.9271 22.4302
1 48.2665 49.8893 22.4035
1 44.7546 35.9779 28.6552
1 47.5821 34.5837 26.4211
1 47.2911 35.7944 28.6962
1 49.9172 34.4097 26.553
1 49.8683 35.7386 28.5934
1 39.4816 38.7988 26.599
1 39.2162 40.2282 28.6303
1 42.0398 38.6283 26.4797
1 41.9001 40.2486 28.6799
1 40.6171 38.1681 28.6687
1 43.5238 36.6589 26.5796
1 44.6049 38.8437 26.5246
1 44.4533 40.2459 28.5976
1 43.1659 38.0103 28.7285
1 46.0385 36.5636 26.5164
1 47.1516 38.7796 26.5125
1 47.1001 40.269 28.6343
1 45.8059 38.0935 28.661
1 48.6637 36.7408 26.6223
1 49.6797 38.9665 26.549
1 49.6155 40.2898 28.6583
1 48.3038 38.0493 28.6348
1 37.0712 43.3349 26.6426
1 36.8189 44.6182 28.7089
1 38.3258 41.0681 26.4632
1 39.5168 43.2285 26.542
1 39.3032 44.5508 28.6276
1 38.0798 42.3757 28.6486
1 40.7891 40.9511 26.5492
1 41.9455 43.2171 26.4938
1 41.8647 44.6431 28.6422
1 40.5868 42.3812 28.698
1 43.242 40.8167 26.5262
1 44.4687 43.2489 26.5445
1 44.4399 44.7104 28.7148
1 43.2103 42.3667 28.5411
1 45.8773 40.995 26.5302
1 46.9712 43.2159 26.6181
1 46.9437 44.7705 28.6612
1 45.7407 42.5779 28.6806
1 48.3188 41.0918 26.4627
1 49.5613 43.2569 26.5567
1 49.5273 44.6866 28.631
1 48.3726 42.4479 28.6819
1 34.4496 47.7575 26.5761
1 34.411 49.1384 28.6829
1 35.7768 45.5239 26.5895
1 36.8867 47.7251 26.5508
1 36.8621 49.0963 28.7361
1 35.4831 46.8044 28.6698
1 38.2202 45.4826 26.4795
1 39.4015 47.7333 26.5275
1 39.315 49.1452 28.7086
1 37.9624 46.84 28.6138
1 40.6264 45.4261 26.5538
1 41.8904 47.7393 26.5714
1 41.8924 49.1484 28.7012
1 40.6029 46.7814 28.7035
1 43.2062 45.4723 26.5509
1 44.3981 47.7337 26.5452
1 44.4648 49.1909 28.7617
1 43.1365 46.8908 28.6652
1 45.7231 45.4507 26.5352
1 46.8913 47.6092 26.6573
1 47.0414 49.1516 28.7853
1 45.6543 46.9252 28.6958
1 48.2496 45.5106 26.5505
1 49.5509 47.686 26.6251
1 49.5272 49.2404 28.7267
1 48.2848 46.8943 28.6091
1 35.5517 50.0549 26.6238
1 38.0665 49.9937 26.5852
1 40.6091 49.8713 26.5952
1 43.1709 49.843 26.6564
1 45.6941 49.9036 26.6977
1 48.2242 49.8979 26.7114
1 47.2072 34.267 30.5684
1 49.5679 34.4717 30.7663
1 39.5103 38.8621 30.7579
1 42.0509 38.6963 30.7464
1 43.5868 36.5639 30.7618
1 44.6339 38.7898 30.7263
1 46.0553 36.5 30.762
1 47.1323 38.7942 30.7354
1 48.5015 36.6121 30.7491
1 49.636 38.8107 30.7326
1 37.2016 43.3933 30.7651
1 38.3436 41.0503 30.7573
1 39.5266 43.217 30.8214
1 40.7954 40.9446 30.7434
1 42.0403 43.1602 30.7622
1 43.3334 40.982 30.7329
1 44.5724 43.2426 30.7444
1 45.8063 40.98 30.7554
1 47.0218 43.2193 30.8254
1 48.3591 41.0226 30.7851
1 49.5535 43.3236 30.7337
1 34.4715 47.7436 30.7835
1 35.8095 45.4961 30.7424
1 36.8951 47.7556 30.8077
1 38.3022 45.5398 30.8085
1 39.4066 47.6769 30.7711
1 40.756 45.3872 30.7597
1 41.8487 47.7377 30.8188
1 43.166 45.4375 30.8318
1 44.3966 47.6445 30.7916
1 45.7499 45.4621 30.7919
1 46.9958 47.6054 30.7833
1 48.2759 45.4398 30.7165
1 49.558 47.6534 30.7392
1 35.5078 50.005 30.799
1 38.0934 49.8993 30.7797
1 40.6348 49.8939 30.7977
1 43.1697 49.9187 30.7794
1 45.7245 49.8869 30.9161
1 48.2048 49.8697 30.8779
1 44.8081 36.0196 32.9214
1 47.2995 35.6055 32.8398
1 49.8274 35.8867 32.9057
1 39.2486 40.2008 32.8623
1 41.9178 40.3001 32.863
1 40.7215 38.2173 32.7449
1 44.3439 40.1756 32.8416
1 43.1376 37.927 32.7488
1 46.9942 40.3132 32.8866
1 45.7965 38.1447 32.8764
1 49.5281 40.2851 32.7985
1 48.3432 38.0502 32.8732
1 36.7551 44.6384 32.8651
1 39.3026 44.6167 32.8911
1 37.9551 42.3978 32.9064
1 41.8348 44.5704 32.9057
1 40.5453 42.353 32.9203
1 44.3739 44.7596 32.8516
1 43.2623 42.548 32.822
1 46.9814 44.7235 32.867
1 45.7592 42.557 32.8698
1 49.6043 44.7141 32.8173
1 48.3111 42.4951 32.8796
1 34.434 49.0702 32.9217
1 36.8526 49.0907 32.8791
1 35.4062 46.7599 32.8747
1 39.2811 49.0479 32.8449
1 37.9324 46.8078 32.8542
1 41.8654 49.1199 32.9074
1 40.5821 46.8286 32.9566
1 44.4149 49.0932 32.9539
1 43.1914 46.8647 32.8119
1 46.9684 49.1038 32.9437
1 45.7776 46.9234 32.9163
1 49.5644 49.2087 32.918
1 48.3178 46.9554 32.8222
1 44.7105 35.9737 37.0161
1 47.1751 34.3176 34.9545
1 47.2361 35.7886 37.0907
1 49.5934 34.4435 34.9933
1 49.8345 35.7688 36.9978
1 39.5136 38.8336 34.907
1 39.268 40.3006 37.0615
1 41.9823 38.7689 34.9273
1 41.9968 40.2935 37.0859
1 40.613 38.2135 37.0389
1 43.4856 36.6429 34.9503
1 44.5694 38.7524 34.9044
1 44.5 40.2322 37.0457
1 43.1712 37.9831 37.0644
1 46.1271 36.5826 34.9651
1 47.1576 38.8012 34.9526
1 46.9977 40.3316 37.0903
1 45.8485 38.1439 37.0755
1 48.5368 36.6321 34.9719
1 49.5921 38.9035 34.9432
1 49.6469 40.3069 37.078
1 48.3007 38.0278 37.0624
1 37.0196 43.3525 35.0186
1 36.6816 44.6996 37.0796
1 38.2894 41.0759 34.9728
1 39.5242 43.2362 35.0397
1 39.2909 44.567 37.0949
1 37.9502 42.4562 37.1247
1 40.7974 41.0256 34.9908
1 42.0966 43.1634 34.9688
1 41.9027 44.5907 37.0505
1 40.5825 42.4046 37.0745
1 43.3147 40.962 34.9815
1 44.5255 43.2263 34.9524
1 44.4361 44.6747 37.0957
1 43.1957 42.4164 37.0688
1 45.8482 40.9711 34.8653
1 47.0635 43.286 34.9474
1 47.0162 44.6657 37.0646
1 45.691 42.4446 37.0441
1 48.2998 40.9848 35.032
1 49.5697 43.2182 34.9302
1 49.5198 44.8129 37.0291
1 48.3343 42.4963 37.0304
1 34.4779 47.689 35.0383
1 34.4151 49.0487 37.0467
1 35.7168 45.4432 34.947
1 36.9022 47.6702 34.9694
1 36.7565 49.0413 37.1197
1 35.4168 46.7886 37.1051
1 38.2998 45.5115 34.9532
1 39.3258 47.7017 34.9504
1 39.333 49.1153 37.1058
1 37.9353 46.8982 37.0408
1 40.7333 45.4178 34.967
1 41.9139 47.6221 34.973
1 41.8404 49.068 37.1909
1 40.5686 46.8336 37.0589
1 43.1848 45.4373 34.9534
1 44.4439 47.6581 35.1008
1 44.43 49.1438 37.1365
1 43.1791 46.8606 37.0782
1 45.8167 45.4315 34.9659
1 47.0152 47.6049 34.9677
1 47.0329 49.0553 37.0564
1 45.8222 46.8915 37.0879
1 48.3388 45.4554 34.8868
1 49.5415 47.7055 35.0414
1 49.5145 49.0984 37.1128
1 48.3167 46.8694 37.1397
1 35.4862 49.8807 34.9394
1 38.0217 49.8777 34.9778
1 40.6066 49.8865 35.0866
1 43.0676 49.8693 35.0596
1 45.6498 49.8892 35.0265
1 48.2518 49.8266 34.9631
1 44.7996 36.0065 41.3035
1 47.6736 34.5672 39.2062
1 47.3078 35.8577 41.2569
1 50.0487 34.4302 39.1295
1 49.7583 35.7098 41.2557
1 39.5653 38.9237 39.1904
1 39.2336 40.2359 41.3258
1 42.0528 38.5917 39.172
1 41.9094 40.2751 41.259
1 40.711 38.1978 41.31
1 43.6024 36.6825 39.1673
1 44.6448 38.8412 39.1385
1 44.5726 40.2626 41.3177
1 43.2507 38.0003 41.2824
1 46.1013 36.5399 39.1386
1 47.1913 38.788 39.1967
1 47.1289 40.3346 41.2332
1 45.854 38.121 41.2237
1 48.6948 36.6657 39.1309
1 49.73 38.8652 39.1128
1 49.6282 40.2357 41.2288
1 48.3857 38.0486 41.1965
1 37.1111 43.3257 39.1947
1 36.8551 44.6394 41.2359
1 38.3384 41.1533 39.2446
1 39.5436 43.2895 39.2296
1 39.3724 44.5502 41.2957
1 38.0199 42.3802 41.3179
1 40.8111 40.9805 39.1925
1 41.9964 43.1998 39.1212
1 41.9379 44.6909 41.2917
1 40.5959 42.398 41.2839
1 43.2983 40.9148 39.1675
1 44.4791 43.1518 39.1612
1 44.5121 44.6412 41.2436
1 43.1907 42.43 41.2141
1 45.9322 40.9788 39.18
1 47.0725 43.2914 39.1585
1 47.0444 44.6226 41.2479
1 45.7355 42.5271 41.3249
1 48.4244 40.9992 39.0496
1 49.5733 43.3562 39.1087
1 49.5225 44.6704 41.2395
1 48.2357 42.5224 41.2201
1 34.4717 47.8204 39.2252
1 34.45 49.1078 41.4294
1 35.7357 45.5158 39.1934
1 36.8697 47.7648 39.1952
1 36.8351 49.1314 41.3071
1 35.4404 46.8132 41.2836
1 38.2766 45.475 39.1974
1 39.3953 47.6662 39.1533
1 39.3874 49.1171 41.315
1 38.0497 46.8207 41.2688
1 40.7356 45.3734 39.2211
1 41.9054 47.5339 39.1459
1 41.9172 49.0436 41.2803
1 40.5736 46.796 41.2191
1 43.2689 45.4385 39.2132
1 44.5353 47.6293 39.1498
1 44.4756 49.0086 41.2898
1 43.2153 46.8397 41.2916
1 45.8138 45.4125 39.1752
1 46.9363 47.67 39.2199
1 47.0226 49.0796 41.3677
1 44.4856 47.6448 43.4322
1 50.8183 45.463 39.1626
1 49.5735 47.5962 39.2359
1 49.526 49.0633 41.3503
1 45.8338 46.8444 41.2478
1 35.5178 50.0361 39.2702
1 38.085 49.9121 39.2557
1 40.6264 49.8369 39.2584
1 43.1228 49.8742 39.2155
1 45.735 49.8433 39.2016
1 48.3082 49.8249 39.1679
1 47.6009 34.5347 43.1882
1 50.0606 34.4939 43.3854
1 39.4945 38.8481 43.3651
1 42.0551 38.6727 43.4221
1 43.5853 36.6758 43.3121
1 44.7048 38.7523 43.3653
1 46.1252 36.5325 43.4143
1 47.1892 38.7871 43.3575
1 48.6229 36.6881 43.3503
1 49.6892 38.895 43.3697
1 37.0894 43.3329 43.3826
1 38.225 41.0947 43.416
1 39.5648 43.2254 43.3773
1 40.7778 40.9599 43.4183
1 41.9937 43.2089 43.4152
1 43.2481 40.8837 43.2726
1 44.4901 43.1689 43.4677
1 45.9176 40.9845 43.3708
1 47.0199 43.2495 43.4053
1 48.3764 41.0284 43.3621
1 49.5505 43.1993 43.3804
1 34.4925 47.8034 43.4798
1 35.8189 45.5493 43.3439
1 36.9087 47.8088 43.394
1 38.3245 45.5122 43.3532
1 39.4358 47.6558 43.3852
1 40.6428 45.4367 43.4053
1 41.939 47.6049 43.365
1 43.2839 45.4162 43.381
1 45.6533 46.9317 45.5714
1 45.8178 45.4603 43.4128
1 46.9757 47.6942 43.3674
1 48.2764 45.4845 43.3493
1 49.5627 47.6279 43.3172
1 35.5481 50.0784 43.4719
1 38.122 49.931 43.4106
1 40.7029 49.8037 43.434
1 43.2088 49.8312 43.4246
1 45.7225 49.8598 43.4239
1 48.3682 49.8377 43.3791
1 44.6727 36.0182 45.4544
1 47.2543 35.6924 45.4631
1 49.7358 35.7707 45.4019
1 39.2547 40.2652 45.4933
1 41.9627 40.2667 45.5253
1 40.6651 38.2374 45.5132
1 44.4695 40.2595 45.4559
1 43.1959 38.0173 45.4628
1 47.1662 40.3476 45.5063
1 45.7991 38.1399 45.4655
1 49.6991 40.2924 45.5162
1 48.284 37.9994 45.496
1 36.7793 44.6252 45.5104
1 39.3114 44.6707 45.5321
1 37.9801 42.5146 45.5038
1 41.8874 44.6531 45.4315
1 40.5454 42.3771 45.4736
1 44.4175 44.7053 45.5187
1 43.2265 42.4477 45.5038
1 46.8993 44.6265 45.4858
1 45.8052 42.4399 45.5364
1 49.5633 44.7517 45.5163
1 48.4764 42.5568 45.5228
1 34.407 49.0463 45.5822
1 36.8427 49.0417 45.5239
1 35.4713 46.7695 45.5753
1 39.3548 49.0558 45.5974
1 37.9215 46.8343 45.4663
1 41.9143 49.1585 45.5335
1 40.5569 46.8594 45.53
1 44.4254 49.0511 45.4998
1 43.0815 46.8944 45.5257
1 48.339 51.3336 45.4739
1 46.9698 49.1593 45.5495
1 49.5391 49.0744 45.4681
1 48.2149 46.9094 45.3935
1 44.6656 35.9233 49.6165
1 47.5907 34.4804 47.5342
1 47.1755 35.7042 49.646
1 49.9494 34.5147 47.53
1 49.6612 35.9086 49.566
1 39.4871 38.8948 47.6482
1 39.2034 40.2646 49.7558
1 41.9448 38.62 47.6305
1 41.9334 40.2676 49.771
1 40.5749 38.2405 49.7451
1 43.52 36.6304 47.5745
1 44.5616 38.7455 47.5847
1 44.4682 40.1828 49.6762
1 43.1346 37.9606 49.7053
1 45.9834 36.5058 47.5489
1 47.0824 38.8331 47.5389
1 47.071 40.2586 49.6543
1 45.7932 37.9966 49.5568
1 48.4756 36.788 47.5644
1 49.6579 38.9303 47.5671
1 49.6304 40.3612 49.6633
1 48.4227 38.1101 49.683
1 37.0263 43.4202 47.6125
1 36.7408 44.6922 49.7114
1 38.2852 41.2306 47.599
1 39.4773 43.3009 47.6254
1 39.1954 44.6494 49.7507
1 37.9925 42.48 49.7321
1 40.7747 41.0242 47.6312
1 41.9763 43.1905 47.609
1 41.8396 44.6306 49.7197
1 40.5439 42.3926 49.795
1 43.2023 40.9519 47.6592
1 44.4809 43.2146 47.5384
1 44.4376 44.6958 49.6762
1 43.2159 42.505 49.6638
1 45.7559 41.0707 47.5271
1 47.0709 43.2761 47.6377
1 46.9995 44.7346 49.7722
1 45.7654 42.413 49.7527
1 48.3346 41.0508 47.6106
1 49.6553 43.2673 47.6144
1 49.6044 44.6554 49.7597
1 48.3066 42.5002 49.6423
1 34.44 47.7985 47.6951
1 34.442 49.2016 49.7386
1 35.7441 45.6142 47.6424
1 36.9057 47.8072 47.6708
1 36.8386 49.1552 49.8666
1 35.3746 46.8953 49.7459
1 38.2487 45.6107 47.6572
1 39.3867 47.7162 47.615
1 39.2456 49.1916 49.7941
1 37.935 46.9516 49.7539
1 40.7633 45.4766 47.6628
1 41.8378 47.7131 47.655
1 41.8564 49.0994 49.7045
1 40.5151 46.9092 49.7594
1 43.1985 45.4552 47.6396
1 44.3776 47.6713 47.6411
1 44.4108 49.0652 49.7629
1 43.1538 46.8045 49.7207
1 45.8084 45.4407 47.6587
1 47.0508 47.6724 47.6488
1 47.0003 49.1037 49.7655
1 45.7473 46.9926 49.6544
1 48.3283 45.4512 47.6017
1 49.6348 47.6294 47.5237
1 50.9684 49.881 51.728
1 48.3308 46.8893 49.7799
1 35.5475 50.0502 47.6364
1 38.1025 49.9643 47.7012
1 40.6897 49.8832 47.6863
1 43.214 49.9361 47.6679
1 45.7065 49.8407 47.6787
1 49.5851 49.0967 49.6979
1 44.681 36.0872 53.9766
1 48.5662 34.2815 51.3415
1 47.2106 36.0111 53.8559
1 50.9623 34.3483 50.993
1 49.8682 36.072 53.8668
1 39.534 38.9293 51.7812
1 39.2481 40.2958 53.9614
1 41.9851 38.6835 51.8254
1 41.9148 40.3048 53.8931
1 40.6796 38.1609 53.8688
1 43.5424 36.4455 51.7732
1 44.5954 38.6825 51.7553
1 43.3407 38.2952 53.8445
1 42.2171 36.1545 53.8126
1 46.0549 36.4156 51.7621
1 47.1718 38.7677 51.7561
1 47.1799 40.4061 53.9417
1 45.9433 38.2016 53.8288
1 48.5254 36.6309 51.7955
1 49.7105 38.8146 51.7636
1 49.6797 40.3719 53.882
1 48.4637 38.1869 53.9544
1 37.1668 43.4368 51.9192
1 36.7258 44.7123 54.0508
1 38.3266 41.2094 51.8836
1 39.5607 43.3005 51.8685
1 39.2947 44.7774 53.9654
1 38.0072 42.5264 53.9892
1 40.7772 41.0197 51.8346
1 41.9743 43.1395 51.8836
1 41.8865 44.6875 53.9514
1 40.5958 42.4778 53.965
1 43.3467 40.9238 51.8327
1 44.52 43.1464 51.8458
1 44.5235 44.6597 53.9408
1 43.2896 42.4883 53.9652
1 45.8595 40.9806 51.8122
1 47.0887 43.1952 51.8326
1 45.7639 42.5465 53.8954
1 44.56 40.3688 53.8985
1 48.3078 40.9811 51.7517
1 49.6569 43.149 51.8808
1 49.6275 44.7144 53.8262
1 48.3732 42.6231 53.9275
1 34.5926 47.9414 51.8958
1 34.4675 49.3076 53.9518
1 35.8704 45.6655 51.9107
1 36.9986 47.8332 51.8833
1 36.8748 49.1944 54.0662
1 35.5011 47.0164 53.9854
1 38.3001 45.5497 51.8071
1 39.3862 47.7418 51.8401
1 39.4173 49.1102 53.9632
1 37.9829 46.8544 53.9562
1 40.7881 45.4539 51.7663
1 41.9484 47.7082 51.7701
1 41.883 49.1276 53.8925
1 40.6835 46.8996 53.85
1 43.2033 45.3616 51.8564
1 44.4861 47.6391 51.8088
1 44.4981 49.2201 53.921
1 43.2121 46.8522 53.9411
1 45.7489 45.4395 51.7914
1 47.0306 47.6378 51.79
1 47.0309 49.1485 53.9073
1 45.7874 46.9463 53.9666
1 48.3402 45.4209 51.809
1 49.6383 47.6577 51.7174
1 48.358 46.9272 53.8831
1 47.0909 44.7552 53.9362
1 35.626 50.1756 51.8693
1 38.1923 49.9999 51.984
1 40.7189 49.8874 51.8544
1 43.1835 49.9625 51.8192
1 45.7622 49.8546 51.8279
1 48.3623 49.8734 51.8175
1 44.8504 36.0434 58.1333
1 48.7762 34.0624 53.7473
1 47.306 35.8457 58.1517
1 49.8212 34.5516 55.9858
1 49.7925 35.85 58.1268
1 39.757 39.0129 56.0685
1 39.4618 40.2348 58.0875
1 42.3436 38.8962 55.963
1 41.9786 40.2498 58.0829
1 40.8366 38.0646 58.1437
1 41.0439 36.9399 55.9613
1 43.4946 36.5512 56.0681
1 44.5446 40.1841 58.1167
1 43.2767 38.0268 58.0188
1 46.0685 36.5872 55.9938
1 47.3043 38.8114 56.0882
1 47.1419 40.3423 58.2165
1 45.9317 38.1429 58.2064
1 48.4988 36.5391 56.0059
1 49.7779 38.8028 55.9532
1 49.7149 40.2911 58.1051
1 48.446 38.0322 58.1974
1 37.1778 43.5049 56.1275
1 36.9273 44.7054 58.205
1 38.49 41.2353 56.094
1 39.6461 43.3916 56.0069
1 39.435 44.6866 58.1971
1 38.1315 42.3796 58.2279
1 40.9143 41.1472 56.0447
1 42.0711 43.2786 55.9843
1 41.9558 44.6095 58.1468
1 40.7038 42.4537 58.1802
1 43.4494 41.0544 56.0207
1 44.6465 43.2603 56.019
1 44.5077 44.6735 58.2047
1 43.2439 42.4002 58.2031
1 44.7123 38.7322 55.9645
1 45.8924 40.9771 56.0308
1 46.9911 44.7413 58.0352
1 45.856 42.512 58.1503
1 48.4455 41.0383 56.0915
1 49.7036 43.2151 56.016
1 49.7098 44.8236 58.0554
1 48.41 42.5343 58.0857
1 34.5773 47.9775 56.1217
1 34.3168 49.3183 58.1848
1 35.8206 45.7003 56.1007
1 37.0199 47.8287 56.1167
1 36.7975 49.172 58.1991
1 35.5518 46.9578 58.2307
1 38.2331 45.6085 56.0993
1 39.4491 47.7696 56.0293
1 39.3923 49.1681 58.1407
1 38.0255 46.8888 58.1941
1 40.7698 45.5768 56.0762
1 41.9711 47.6734 55.9975
1 41.898 49.1355 58.2275
1 40.653 46.9258 58.2018
1 43.2236 45.5007 56.0951
1 44.4757 47.7325 56.0687
1 44.476 49.1918 58.1669
1 43.1817 46.8522 58.1562
1 45.7593 45.449 56.0161
1 47.0992 47.6963 55.9413
1 47.0941 49.2535 58.0947
1 45.7829 46.9779 58.1381
1 47.1277 43.2048 55.9223
1 48.397 45.4319 55.9493
1 49.6449 49.1372 58.0354
1 48.3035 47.0145 58.0649
1 35.6087 50.0695 56.0949
1 38.0765 50.0022 56.0218
1 40.6794 49.9136 56.1897
1 43.26 49.957 56.0321
1 45.7712 49.8673 56.025
1 48.3834 49.859 55.9981
1 44.9585 35.9454 62.3208
1 47.7347 34.5677 60.2055
1 47.4751 35.7763 62.3777
1 50.115 34.478 60.1254
1 50.0114 35.7661 62.3927
1 39.8259 38.9551 60.246
1 39.4267 40.364 62.3582
1 42.2678 38.7178 60.2535
1 42.1324 40.2535 62.3952
1 40.743 38.2726 62.3891
1 43.6464 36.5953 60.2113
1 44.7329 38.7593 60.2513
1 44.573 40.148 62.4114
1 43.3536 37.8146 62.3627
1 46.1772 36.4977 60.2564
1 47.2077 38.8463 60.2045
1 47.2154 40.3199 62.3818
1 45.9954 38.0989 62.3486
1 48.7656 36.7598 60.2307
1 49.841 38.8529 60.242
1 49.7742 40.378 62.2884
1 48.4918 38.086 62.3601
1 37.2325 43.4631 60.2677
1 36.8956 44.7361 62.4117
1 38.5393 41.2251 60.3138
1 39.627 43.2644 60.2244
1 39.3588 44.5864 62.3625
1 38.1284 42.528 62.3538
1 40.975 41.0397 60.303
1 42.1566 43.1784 60.262
1 41.9961 44.6113 62.3337
1 40.7442 42.3516 62.3198
1 43.4438 40.9711 60.2963
1 44.6287 43.2354 60.3356
1 44.5223 44.735 62.3684
1 43.3624 42.4385 62.47
1 45.9004 41.0148 60.3285
1 47.1608 43.2596 60.2459
1 47.1709 44.7191 62.3415
1 45.8536 42.4126 62.3561
1 48.5153 41.0379 60.2444
1 49.7058 43.2282 60.1615
1 49.7552 44.752 62.2335
1 48.4694 42.5895 62.3101
1 34.6843 48.001 60.2722
1 34.419 49.2641 62.4748
1 35.8955 45.7166 60.281
1 37.1124 47.829 60.2956
1 36.9334 49.123 62.3894
1 35.5117 46.912 62.402
1 38.3539 45.5361 60.2838
1 39.514 47.7196 60.2513
1 39.4247 49.1624 62.4096
1 38.0744 46.8514 62.3104
1 40.794 45.4606 60.3036
1 42.0393 47.7059 60.2819
1 42.0382 49.1723 62.3826
1 40.646 46.917 62.3099
1 43.2868 45.3941 60.3238
1 44.5497 47.6888 60.1866
1 44.5748 49.084 62.3619
1 43.2299 46.8888 62.348
1 45.7787 45.4739 60.1735
1 47.1767 47.6547 60.2141
1 47.1221 49.1297 62.355
1 45.8873 46.8693 62.2742
1 48.4023 45.4288 60.1447
1 49.685 47.6922 60.2327
1 49.7376 49.0888 62.2734
1 48.4934 46.8872 62.2756
1 35.9033 50.1317 60.2502
1 38.3503 50.056 60.227
1 40.8029 50.0138 60.351
1 43.265 49.8944 60.2508
1 45.8814 49.8824 60.2082
1 48.4189 49.9669 60.2213
1 44.9437 35.9368 66.5753
1 47.4084 34.3078 64.4436
1 47.429 35.7757 66.4118
1 49.7831 34.4651 64.5059
1 49.9613 35.7214 66.5236
1 39.6742 38.9852 64.4756
1 39.497 40.2509 66.5755
1 42.2582 38.6023 64.5465
1 42.137 40.1652 66.5814
1 40.7464 38.2045 66.586
1 43.7162 36.4939 64.4907
1 44.7928 38.6837 64.5032
1 44.6752 40.1667 66.5472
1 43.326 37.8315 66.6354
1 46.136 36.4809 64.466
1 47.2241 38.7929 64.4005
1 47.2752 40.282 66.5307
1 45.9891 38.1009 66.5929
1 48.7341 36.6659 64.3979
1 49.8516 38.8745 64.3852
1 49.8177 40.2774 66.4898
1 48.5839 38.0657 66.4178
1 37.308 43.4586 64.4558
1 37.0008 44.747 66.6665
1 38.5246 41.143 64.4633
1 39.7112 43.3592 64.4818
1 39.4908 44.6574 66.6284
1 38.1574 42.4493 66.5409
1 40.9749 41.0534 64.5168
1 42.1538 43.2323 64.5089
1 42.0679 44.5944 66.5405
1 40.7832 42.324 66.5739
1 43.4674 40.9618 64.5604
1 44.6799 43.2831 64.4767
1 44.6601 44.7128 66.6085
1 43.4035 42.4383 66.563
1 45.9486 41.012 64.4751
1 47.2179 43.2594 64.3765
1 47.228 44.712 66.517
1 45.9956 42.5184 66.4976
1 48.5401 41.029 64.4101
1 49.7848 43.2202 64.4675
1 49.785 44.7969 66.4283
1 48.5171 42.4683 66.5811
1 34.6941 47.8788 64.6148
1 34.5462 49.2992 66.6136
1 35.9745 45.6283 64.5484
1 37.1334 47.8147 64.5043
1 36.9698 49.1258 66.516
1 35.6569 46.8899 66.6398
1 38.3951 45.6158 64.4964
1 39.5869 47.7344 64.4086
1 39.5544 49.0828 66.4672
1 38.2082 46.9656 66.58
1 40.8568 45.5043 64.4255
1 42.1869 47.6517 64.4797
1 42.0999 49.2029 66.4639
1 40.7223 46.9177 66.5024
1 43.367 45.4201 64.5042
1 44.6547 47.7084 64.4645
1 44.5801 49.1298 66.5472
1 43.2963 46.9461 66.5615
1 45.8963 45.4717 64.4089
1 47.1867 47.5809 64.3371
1 47.1531 49.2024 66.4512
1 45.9541 46.9314 66.4795
1 48.438 45.4168 64.3691
1 49.7393 47.6771 64.3019
1 49.7919 49.0718 66.4196
1 48.4974 46.9131 66.3943
1 35.7282 50.0803 64.4459
1 38.2802 50.0008 64.426
1 40.8015 49.8952 64.3997
1 43.4178 49.9125 64.5159
1 45.9268 49.8774 64.4103
1 48.3901 49.8398 64.3393
1 44.9498 36.0545 70.7699
1 47.7658 34.4673 68.5255
1 47.437 35.733 70.7591
1 50.2749 34.4459 68.4945
1 50.048 35.8202 70.742
1 39.8022 38.9103 68.7507
1 39.5402 40.3334 70.9556
1 42.1704 38.6926 68.7013
1 42.2793 40.361 70.7505
1 40.9187 38.3443 70.9065
1 43.8421 36.5794 68.7021
1 44.8683 38.7355 68.6714
1 44.8524 40.2803 70.7712
1 43.4222 38.0064 70.792
1 46.3362 36.5175 68.6151
1 47.3531 38.7587 68.6112
1 47.3987 40.3464 70.5775
1 46.0802 38.1037 70.7665
1 48.7726 36.6766 68.5944
1 49.9043 38.8804 68.5949
1 49.9961 40.3441 70.6918
1 48.606 38.0237 70.7616
1 37.2575 43.4121 68.7341
1 36.9807 44.6978 70.7467
1 38.4574 41.1516 68.767
1 39.7591 43.3125 68.6595
1 39.6898 44.6537 70.7395
1 38.2618 42.5121 70.8234
1 40.9326 41.0693 68.7148
1 42.2448 43.1967 68.705
1 42.2143 44.7634 70.7297
1 40.9196 42.432 70.7909
1 43.455 40.8698 68.6179
1 44.7825 43.1542 68.6942
1 44.7347 44.778 70.6775
1 43.4768 42.5457 70.7211
1 46.0442 41.0398 68.6127
1 47.2921 43.2627 68.5873
1 47.2708 44.7454 70.6863
1 46.1514 42.5366 70.7262
1 48.6162 41.0492 68.6116
1 49.8881 43.275 68.5346
1 49.9271 44.8397 70.6779
1 48.6507 42.6231 70.614
1 34.6599 47.8814 68.6862
1 34.6878 49.2343 70.7626
1 36.0334 45.6993 68.6672
1 37.133 47.8213 68.6676
1 37.1474 49.087 70.7889
1 35.6279 46.9228 70.8276
1 38.5235 45.6288 68.6896
1 39.6969 47.7339 68.6877
1 39.6277 49.1723 70.7611
1 38.2578 46.878 70.747
1 40.9426 45.528 68.6674
1 42.1574 47.7358 68.6494
1 42.2047 49.1686 70.741
1 40.8676 46.9927 70.7526
1 43.4467 45.469 68.6066
1 44.5888 47.6503 68.5959
1 44.7761 49.2453 70.7547
1 43.4292 47.0466 70.6878
1 45.9759 45.5186 68.5596
1 47.2355 47.7232 68.5217
1 47.3262 49.2022 70.7059
1 45.9395 46.9755 70.612
1 48.5324 45.4576 68.497
1 49.7742 47.7262 68.5033
1 49.8823 49.2071 70.5475
1 48.4357 46.9479 70.572
1 35.7798 50.1154 68.7393
1 38.2798 49.9888 68.6238
1 40.8497 49.988 68.6152
1 43.4174 49.9112 68.657
1 45.9054 49.8699 68.4838
1 48.521 49.9388 68.5941
1 44.9685 36.2469 74.946
1 47.7364 34.6474 72.9403
1 47.5003 35.9457 74.9974
1 50.0498 34.4006 72.7627
1 50.0862 35.7242 74.7472
1 39.8081 38.9642 73.0892
1 39.6633 40.4282 75.2257
1 42.2675 38.8471 72.9448
1 42.297 40.4749 75.01
1 40.968 38.3976 75.2541
1 43.7503 36.7137 72.8574
1 44.7723 38.9997 72.8716
1 44.845 40.4367 74.8756
1 43.4941 38.2135 75.0288
1 46.191 36.667 72.8418
1 47.3819 38.8832 72.8484
1 47.506 40.4 74.8543
1 46.1614 38.2911 74.8588
1 48.7996 36.6957 72.8072
1 49.9744 38.9212 72.8198
1 49.9806 40.3384 74.844
1 48.8047 37.9822 74.917
1 37.3236 43.3489 72.9313
1 37.0978 44.7022 75.1087
1 38.5717 41.1902 73.0868
1 39.7735 43.2812 72.9083
1 39.7138 44.7837 74.9353