ITEM: TIMESTEP
0
ITEM: NUMBER OF ATOMS
5538
ITEM: BOX BOUNDS pp pp pp
0.102528 99.8975
0.375086 99.6249
-1.22644 101.226
ITEM: ATOMS id type x y z c_csym c_2[1] c_2[2] c_2[3] c_2[4] c_2[5] c_2[6] 
4 1 48.7479 34.5733 8.04685 0 -414541 -218963 -121220 272401 327348 -208330 
2 1 46.4925 35.4552 7.69957 0 99184.3 -252735 -158989 111195 -88499.7 -154387 
10 1 41.1628 37.3305 7.83436 0 1.46758e+06 382294 798918 263006 333001 233950 
1 1 45.2066 37.214 8.42104 0 169084 -242362 462484 272527 -207583 -57420.7 
60 1 43.3238 46.6327 8.14931 0 538460 -184191 1.31389e+06 138303 -389209 -151055 
46 1 35.5157 48.0699 7.82008 0 120620 807713 928822 106322 39511.3 156976 
3 1 46.2538 34.8303 9.95698 0 1.07226e+06 -585123 -465313 -287669 -410085 -429880 
15 1 44.0338 36.3474 10.3225 0 -95940.3 194404 1.2083e+06 264410 -117835 420837 
5 1 48.7082 34.9671 10.4339 0 1.50193e+06 -27890 375406 300688 494706 80338 
6 1 38.9278 37.9507 8.63211 0 483358 -181706 6235.38 -173728 19703 -331875 
7 1 37.9306 39.1196 10.3477 0 -250660 -230561 -362585 124259 169496 -258578 
29 1 39.8307 37.7266 10.896 0 -902043 -397360 289614 -142533 212820 -132686 
11 1 43.21 38.6368 8.73201 0 644526 292777 -448297 204996 188189 353427 
8 1 42.0357 37.2869 10.2111 0 -1.72077e+06 -643386 600827 877913 558692 67369.8 
14 1 45.1229 39.2005 9.91887 18.2992 -235149 611279 1.06922e+06 45220.6 -92731.8 421952 
25 1 36.2031 40.765 10.3921 0 727541 214895 -244935 121603 7753.18 -412181 
9 1 41.1907 39.5769 10.7068 0 -527776 -554559 -133400 349654 106787 -96640.9 
47 1 33.9835 41.5909 9.43349 0 596249 495538 123458 -257640 258479 -36349.3 
24 1 35.6768 43.1291 10.3976 0 861046 124105 -98369.8 -279297 -974185 716090 
23 1 38.0577 42.3173 9.69079 0 1.21904e+06 -234485 -853737 -178013 -484504 -786366 
38 1 46.4309 42.7003 10.2167 19.0151 841532 277384 240017 310405 112292 239528 
42 1 49.6487 43.4423 10.8295 10.7844 276125 -1.34786e+06 131512 -242538 -434509 216640 
50 1 33.3541 43.9378 9.64035 0 208031 -30359.4 -275046 -422655 -191540 -263630 
63 1 44.129 44.8115 9.58988 0 774285 -149687 226070 -452677 -153125 85615.3 
39 1 46.5597 44.93 9.60381 0 694019 -280297 -1.02831e+06 -29076.2 -59724.6 -209761 
43 1 49.0256 45.5313 9.7057 0 1.14908e+06 46155.9 901274 -41740.7 141076 41940.9 
45 1 34.5018 45.9661 8.94054 0 517561 665009 -946851 660062 58244.8 459250 
71 1 36.0514 47.6877 10.2443 0 2.01808e+06 -2.23121e+06 2.75037e+06 1.89097e+06 3.13374e+06 914011 
62 1 41.8477 46.0729 10.4042 13.4592 843185 1.24713e+06 1.76415e+06 -233719 -693942 -1.45571e+06 
66 1 45.0412 46.9933 10.0632 11.1541 793088 -854339 305395 -518340 120366 -524884 
61 1 42.9566 48.3195 9.94632 0 691264 703164 704714 362113 817240 -193507 
65 1 47.0113 48.4613 10.4938 0 -1.2982e+06 -976672 -255933 -542531 -34476.5 -21997.7 
19 1 46.9795 36.2204 11.5867 8.87878 796203 -1.10623e+06 -730538 -663371 -355912 -955299 
22 1 49.2768 35.9628 12.7229 11.2795 420769 -1.20511e+06 -183967 271740 110827 -105042 
12 1 42.7807 38.4772 12.2098 11.6413 -555327 209379 383028 202543 376084 167402 
18 1 44.775 37.2769 12.6602 11.5012 1.36272e+06 609580 708956 420992 -420282 190363 
16 1 47.3048 38.3119 12.5674 9.633 1.20681e+06 -1.10555e+06 -721090 537147 198339 -630775 
32 1 39.2979 40.8827 11.0596 8.78332 794276 -451619 361073 -588825 -598257 323198 
13 1 45.3423 39.7782 12.4029 7.40804 -960023 -779501 759733 305171 -513636 333834 
33 1 43.4924 40.5259 11.2077 9.85922 -1.06074e+06 -1.13296e+06 -739085 175609 -219204 -216518 
41 1 49.8247 40.3828 13.0509 12.9214 227887 -711992 -409509 -178248 554121 127148 
28 1 37.0446 41.8947 12.1942 0 228299 -902369 672795 -456154 -1.46519e+06 1.51986e+06 
26 1 39.3434 42.6965 12.7756 8.17606 -138038 1.70726e+06 1.16274e+06 972760 372987 936397 
30 1 41.5317 41.948 11.664 9.26757 289462 1.06088e+06 397066 191781 -21289.8 36284.6 
36 1 43.4779 41.6679 13.2309 7.4813 -803679 -993712 -1.43533e+06 535284 51631.1 143702 
35 1 43.8807 42.8486 11.0507 11.232 883338 -1.28199e+06 -109445 -747804 -957965 603970 
40 1 45.8735 41.9855 12.5195 7.34116 -366158 1.82957e+06 89294.6 -1.08221e+06 -138015 -677356 
44 1 48.2087 41.6807 11.7339 11.4879 362796 -156993 332312 -169031 -82170.9 -73995 
48 1 34.615 45.344 11.0894 0 -1.04003e+06 696555 -1.49695e+06 -1.2422e+06 -778056 36356.5 
51 1 35.7659 43.8751 12.8621 10.3832 168744 -642773 325573 484404 -421831 47900.1 
27 1 37.8793 43.8727 11.2758 10.1319 -842300 -1.72152e+06 -743083 -317174 -229415 -400201 
31 1 40.2866 44.2107 11.0184 16.1131 -705081 781373 -211084 -786374 -556477 -190052 
59 1 42.1307 44.3293 12.474 6.81112 -219575 1.72542e+06 1.10291e+06 -621285 -820867 -779349 
64 1 45.2021 44.651 11.8619 8.62263 -117084 2.35616e+06 1.52629e+06 -1.10279e+06 806950 -1.68779e+06 
67 1 47.5684 44.0513 12.1241 8.56242 414230 -952250 360338 94072.6 77931.8 328327 
54 1 36.3476 46.2302 12.2729 10.1101 257367 844635 -228070 -959407 -62516.6 -55708.8 
52 1 38.8121 46.0119 11.9781 10.7002 441812 25893.1 -470125 -435465 -413300 -80506.5 
58 1 41.0143 46.8449 12.4369 10.68 -464882 182932 190748 -62056.9 206384 -177573 
75 1 43.5393 46.6161 12.0977 5.47666 255070 1.35711e+06 26675.9 -240465 -332672 -462315 
70 1 47.1974 46.2709 11.3605 9.05176 433367 -978367 -97350.5 42276.1 -49009.4 -167216 
68 1 49.4439 46.1405 12.1701 8.91331 178390 -1.16429e+06 628153 45536.8 -1.42231e+06 953611 
49 1 34.3325 47.911 11.7399 0 -145799 303808 3.10838e+06 -1.47463e+06 744757 -175969 
1491 1 36.3219 49.8108 11.2204 11.4615 -1.16057e+06 -3.12983e+06 -1.03586e+06 620687 -1.14077e+06 -796590 
72 1 35.0329 49.624 13.3647 13.7645 571449 -539496 -601526 54766.9 -240578 232860 
53 1 37.8912 48.3289 11.9974 9.31127 1.09881e+06 -2.42554e+06 -216005 1.57114e+06 2.99045e+06 944257 
73 1 40.1933 48.8253 11.3878 12.6495 -2.39091e+06 -1.89167e+06 896907 -338114 -1.21355e+06 690478 
56 1 42.3372 48.9067 12.205 9.74099 -3.32581e+06 374591 -674844 -1.70645e+06 -677829 38426.5 
1500 1 44.9794 48.6628 11.7579 8.67949 -470439 31207.8 553380 384247 1.40682e+06 -534793 
76 1 48.2317 48.2119 12.7399 9.2003 -1.20817e+06 2.66299e+06 221076 13088.4 -119778 1.27867e+06 
1503 1 48.7935 49.865 11.0084 20.6014 342264 -1.05797e+06 88729.3 -830452 -251826 -597810 
90 1 41.6027 34.8372 14.9823 0 1.08845e+06 -160569 162140 746017 299597 -545150 
94 1 44.267 34.9971 15.696 15.0048 1.65919e+06 1.99925e+06 445949 -1.22687e+06 1.06626e+06 -1.3588e+06 
98 1 47.6365 36.774 14.442 7.68668 -6875.72 131491 -1.53074e+06 -54299.9 477095 -479256 
20 1 49.7388 35.5344 14.9548 9.61632 648367 -1.07371e+06 531897 -793441 315336 255187 
88 1 42.9931 37.1064 14.3216 0 1.4863e+06 1.6495e+06 1.86923e+06 -408177 -510450 -1.50698e+06 
93 1 45.7368 38.407 14.5143 7.07742 -290765 52643.5 -1.25922e+06 228154 -308677 197108 
97 1 48.7532 38.8677 15.4643 10.2273 -72954.3 187052 1.87268e+06 -488136 993642 -587040 
21 1 49.6357 38.0919 13.4234 9.63342 -819735 -2.6384e+06 -41150.5 -297486 600034 -499086 
89 1 43.6469 39.614 14.2326 6.71469 -346178 -155796 -1.14595e+06 244008 226764 245906 
17 1 47.4154 40.3711 13.7287 6.02817 1.0692e+06 555354 1.26227e+06 50251.2 217452 -488961 
120 1 49.4427 41.1377 15.2541 9.67825 -553671 -907456 -122098 -577.071 365192 -132749 
100 1 36.6515 42.5838 14.7333 9.91273 -56992.3 358472 2.21462e+06 861996 -939384 624045 
108 1 38.7299 41.5197 14.8284 12.5409 -63817.6 403557 776424 580972 228238 -523992 
107 1 41.5127 42.4334 14.1799 7.05128 -452033 416916 599376 -190829 857573 -235429 
37 1 45.2353 41.4721 14.8824 7.10183 1.50211e+06 -1.34604e+06 -239532 -1.03526e+06 -2.00882e+06 635395 
114 1 47.3663 42.1049 15.8136 7.32963 -1.32622e+06 895821 1.12401e+06 -212201 218377 64369.1 
118 1 49.4575 43.4932 15.7666 7.67691 391929 -144476 -217988 -233063 72548.6 70331.5 
123 1 34.4789 43.9825 15.1296 0 -358662 -132500 225415 -643563 -818370 -323050 
103 1 37.9838 44.6112 13.8705 8.82027 56107.5 1.44577e+06 1.31248e+06 844059 525783 164133 
55 1 40.4373 44.8228 14.2068 4.15587 -302201 2.20165e+06 1.58391e+06 889358 1.04391e+06 218174 
111 1 43.625 43.8353 14.2713 7.6894 273607 531442 1.47369e+06 -60064.9 475874 527681 
34 1 46.176 43.8075 14.254 6.36931 -301824 -763087 677802 -189663 1.53497e+06 -923609 
119 1 49.5052 44.4913 13.7174 11.3401 -197115 -1.01534e+06 -1.46298e+06 519075 419478 1.31929e+06 
126 1 34.3508 47.5375 14.4259 0 79379.9 -1.94468e+06 2.28277e+06 -830755 301931 -859624 
130 1 35.9462 45.7311 14.6274 9.76897 114281 -165490 -3.05219e+06 925674 278475 -21480.3 
134 1 39.1099 46.999 14.1575 7.29704 -629137 2.18937e+06 -409657 497818 1.14562e+06 1.29844e+06 
138 1 42.5449 46.143 14.3493 4.74599 -136834 54276.1 444683 -463704 425144 -5973.56 
142 1 44.9982 45.9108 13.9463 5.45122 -1.07323e+06 -1.66025e+06 -29168.5 406178 389216 638862 
146 1 47.4369 45.8391 13.872 8.03665 205349 -1.81216e+06 1.17021e+06 48203.2 -1.13917e+06 -505255 
145 1 48.4098 47.5641 15.0788 8.94236 1.21659e+06 -555371 -976876 -284573 -728680 242244 
129 1 36.9521 48.2014 13.9474 5.77198 1.14254e+06 2.02914e+06 -524889 657923 1.43663e+06 -4018.38 
148 1 37.6379 49.8833 15.7684 7.31343 -2.41311e+06 -388037 1.01421e+06 563310 -281557 615343 
1563 1 39.1319 49.62 13.7966 2.59489 -239628 2.11238e+06 1.05889e+06 595962 -1.12869e+06 462021 
133 1 41.2511 48.4629 14.4495 8.90817 852812 -366326 -717462 -220641 -242025 -403117 
137 1 43.895 48.2235 14.0202 5.50052 -653876 -830545 -1.54953e+06 55373.8 -170137 402144 
141 1 46.1939 47.9421 13.8344 8.43964 -1.69268e+06 -1.99164e+06 36467 -285353 531249 -516727 
78 1 47.6104 32.048 17.3344 0 -85033.6 -23877 -228107 213626 -138263 459087 
77 1 41.1571 34.8211 18.2305 0 -235671 197738 333723 24331.8 77604.7 6701.6 
87 1 41.6442 33.0826 16.6043 0 -159158 219945 147864 -214529 -149181 -345343 
91 1 43.4501 34.0419 17.7372 18.8284 -315956 24964.2 -687746 189640 80484.5 -154374 
79 1 45.5579 33.0885 16.9785 0 -281091 702553 441335 196201 500287 -387996 
81 1 48.6597 33.8039 16.1393 0 -1.3957e+06 -858663 114793 637554 -282809 463557 
84 1 41.2878 36.6093 16.47 11.1479 906054 65276.3 1.32639e+06 121373 -685292 -672260 
163 1 43.0611 36.4478 18.1467 5.04852 158811 472158 641423 -228734 734977 -303757 
167 1 45.4153 35.7463 17.8627 8.36011 1.02846e+06 1.08614e+06 1.45846e+06 561689 -317774 -969213 
95 1 46.8023 35.0007 15.9548 14.2917 -607684 1.41349e+06 -198803 850227 -286544 189865 
96 1 48.9733 36.7557 17.0637 5.13786 237439 -829638 1.16005e+06 398065 -1.66879e+06 -130419 
83 1 38.0029 37.5255 17.4724 0 -403907 534439 -1.34109e+06 -324857 -202930 -77927.5 
85 1 40.0005 38.7697 16.9102 12.1075 -1.34765e+06 -298108 -530072 -315019 361378 624745 
109 1 42.3077 38.9414 16.0796 10.7754 -1.98569e+06 -416924 -317872 -356659 212602 95429.4 
113 1 44.3906 37.5664 16.3439 6.88361 -253008 63588.6 327138 -29241.3 -99198.7 40598 
92 1 46.8609 37.5734 16.4601 6.9529 -726218 273334 -2.49581e+06 896029 -388812 -240507 
172 1 49.3829 38.8229 18.1612 6.55663 -133599 -1.18049e+06 2.5783e+06 253629 -175228 317514 
104 1 35.9373 41.0553 16.7748 0 -815519 194456 689017 816628 -149838 -838266 
105 1 37.9161 39.9139 16.5892 10.7633 -1.59805e+06 1.95064e+06 -508268 572861 156144 -345020 
112 1 40.8634 40.7841 15.9091 12.8759 257365 -1.72559e+06 663599 591347 381909 70392.8 
116 1 44.2934 40.0276 16.4566 7.95624 -1.51828e+06 -906762 -2.226e+06 -875481 -488168 18456.3 
117 1 46.6986 39.9013 16.2735 8.6168 -28395.1 -1.74518e+06 245819 171762 150085 712109 
193 1 48.2629 40.9992 18.0725 4.0253 166338 200083 2.9272e+06 661483 991525 363512 
99 1 34.6992 42.995 17.2849 0 86324.6 -36249.9 -274737 130762 128469 -69021.1 
102 1 37.9763 42.6012 16.9057 8.60843 -2.87078e+06 1.75211e+06 -3.05519e+06 2.2857e+06 923609 -229118 
106 1 40.307 43.0093 16.2899 7.46444 -2.17741e+06 -2.55336e+06 975660 1.09742e+06 996697 -308817 
110 1 43.049 42.2426 16.2869 5.03455 2.9995e+06 516056 2.9524e+06 -713482 -390590 946199 
115 1 45.2656 43.3637 16.3622 4.35778 -2.03997e+06 -422896 -1.02828e+06 -78928.9 1.66617e+06 896360 
190 1 47.0829 43.0893 18.213 3.63508 2.38475e+06 357851 466315 777759 3731.84 13342.4 
194 1 49.6052 43.2353 18.2531 4.49233 552236 989197 733765 394678 -121521 448679 
127 1 36.5501 44.4999 16.421 6.4484 36272.5 -90544.9 2.02485e+06 1.32311e+06 -638456 760510 
131 1 39.0618 44.9087 16.3014 3.08921 -1.33571e+06 -229410 1.51152e+06 1.67674e+06 451192 -71197.5 
207 1 40.6382 45.1758 18.1929 5.87362 -70974.9 -702053 -1.58763e+06 56777.4 741548 291660 
135 1 42.1044 44.5248 16.4044 4.4797 -706172 -398372 390258 -585954 393625 -325766 
139 1 44.2393 45.5436 16.4118 4.92565 -1.61733e+06 119396 -790890 -683214 308197 833973 
143 1 47.2662 44.8527 16.1586 6.09277 99845.6 1.1681e+06 1.03708e+06 -241413 -267951 -16868.2 
215 1 45.6783 45.233 18.2276 3.50882 -286665 1.23425e+06 1.05556e+06 1.1581e+06 -560510 1.01785e+06 
121 1 32.9824 47.2183 16.1654 0 -995074 758229 -214115 -40126.7 862074 684808 
124 1 35.3359 46.6129 16.6233 9.43727 -898030 -229770 -1.7783e+06 555050 852132 -1.45339e+06 
128 1 37.7975 46.8568 16.0972 6.29722 -366252 1.22333e+06 1.46995e+06 1.1633e+06 2.05899e+06 -533718 
132 1 40.7279 46.5289 16.183 5.1735 255976 -610226 453680 -188728 -213829 500696 
204 1 39.2841 47.334 18.283 5.14393 307139 169490 898681 358021 63748.7 885370 
136 1 43.0294 47.8367 16.2146 5.262 -2.1251e+06 185172 -1.64369e+06 -1.50567e+06 193360 341394 
212 1 44.4851 47.4662 18.1478 4.39996 -102644 208421 1.30408e+06 407717 -1.44228e+06 -390973 
140 1 46.1929 46.8944 16.1328 4.57337 204207 -605048 524849 31286.2 49966.9 -92423.9 
216 1 47.0893 47.5662 18.1569 5.2772 -360449 849127 -956789 119693 -347159 -432387 
220 1 49.488 47.5054 18.113 1.97636 -1.91493e+06 -1.46725e+06 -2.43673e+06 -476786 315619 -99971.1 
144 1 49.4143 45.9685 16.4054 8.31503 -533404 424442 -2.96762e+06 864816 236241 54455.4 
122 1 30.9922 48.3376 16.6502 0 -21911.7 37951 26841.2 475681 150254 41069.4 
147 1 33.057 49.6424 17.1973 17.1273 1.17113e+06 3.70914e+06 1.23502e+06 -693870 -142460 -420943 
125 1 35.3518 49.0275 15.8691 7.85228 370289 -258633 -179108 -699260 -1.00431e+06 -164470 
223 1 35.4587 49.2379 18.2457 7.72922 234563 689529 729786 -49821.8 -505357 -170250 
224 1 38.09 49.5535 18.2349 4.08243 445926 557158 1.16261e+06 101640 -78707.7 -203402 
149 1 39.5843 48.7707 16.2599 7.15319 -1.48411e+06 -810539 688736 918018 133291 1.61683e+06 
150 1 41.7687 49.9862 16.1669 7.58435 -1.7646e+06 -1.94661e+06 -527898 -1.16428e+06 -182580 199805 
226 1 43.2545 49.6845 18.0673 4.36296 962669 670325 1.44787e+06 339119 -1.66242e+06 -290620 
151 1 44.9301 48.9445 16.053 4.39435 -3.27876e+06 -514352 633521 -1.37175e+06 -504904 -229556 
152 1 47.225 49.2594 16.1989 7.27247 -1.27229e+06 -692326 -178799 -649485 -456962 -13030.2 
228 1 48.3631 49.7481 18.2324 3.35784 -796832 314443 -597823 -715923 -364845 -123387 
154 1 46.9881 33.8936 18.8872 12.6363 -525019 2.34445e+06 83689.4 -355469 821797 507232 
156 1 48.9993 34.7746 18.3611 7.35398 -1.48655e+06 -1.82154e+06 584549 -540191 307641 412117 
82 1 40.0623 37.0222 18.6232 14.2574 -286937 -672425 -551653 262790 517648 -785682 
86 1 41.8907 36.1234 20.2809 15.9718 3.57656e+06 -3.0607e+06 2.7368e+06 -660648 2.04487e+06 43254.5 
153 1 44.5834 35.978 20.3041 8.93429 3.61532e+06 -1.33115e+06 2.41811e+06 -348899 -1.1506e+06 -26385.8 
171 1 47.3785 36.4958 19.1707 9.1086 -657692 -725046 -394835 250687 -1.26234e+06 -417667 
101 1 36.1527 39.1884 18.3822 0 973532 771206 29257.4 -589072 714727 -57765.7 
158 1 38.3952 38.3341 19.6307 20.1226 -247680 746035 -735514 -41458.1 481147 -1.14263e+06 
162 1 40.6429 38.1857 20.6007 8.91212 -254633 -441434 -126675 -302621 -578949 -187143 
160 1 41.9027 38.6984 18.4805 5.83419 -455231 -352319 515161 -112454 128672 -500810 
166 1 43.185 37.9936 20.6765 7.17932 -3.22698e+06 -3.09792e+06 -1.60943e+06 -894415 712487 -75247.9 
164 1 44.304 38.5554 18.6554 6.55154 65637.4 -102189 -647747 267786 86634.6 64303.6 
168 1 46.918 38.8048 18.4661 6.47426 1.67959e+06 -1.30614e+06 -691858 -412575 745636 -798902 
170 1 45.8121 38.0736 20.5507 5.57428 1.87842e+06 -1.19956e+06 -965984 338726 524654 -86184.3 
174 1 48.5406 37.9436 20.4238 6.60466 3.04337e+06 -1.1119e+06 2.18798e+06 -997950 -807763 -911798 
177 1 38.0156 40.7586 18.7352 7.77698 846524 3.57155e+06 -2.0602e+06 -1.05086e+06 -712339 319755 
181 1 40.5555 40.7186 18.4281 8.01812 958567 371350 972192 252536 -226089 229602 
159 1 39.296 40.431 20.6191 5.86511 -707736 -83709.1 -1.55807e+06 69545.5 -1.12976e+06 198466 
185 1 43.1384 40.9091 18.5208 5.56272 -1.07648e+06 -765407 -737186 109934 -29884 -194145 
161 1 41.905 40.2626 20.503 5.28818 -112304 -473055 -919798 -636296 401103 27658.9 
165 1 44.6058 40.1393 20.5848 5.36051 -625393 -1.08338e+06 -2.13615e+06 353748 -487816 52137.4 
189 1 45.5253 40.8467 18.3085 6.88893 -617829 771776 -511787 367072 -486559 -32756.3 
169 1 47.0679 40.2702 20.365 5.8129 36751.3 944109 -382611 -75754.2 -304357 -610820 
173 1 49.6261 40.3482 20.3588 5.09468 1.70529e+06 -1.09676e+06 413577 29707.3 1.27322e+06 580300 
175 1 36.699 43.1238 18.6694 9.56635 -418451 1.57397e+06 -2.04744e+06 -1.18866e+06 1.03704e+06 -805678 
180 1 37.9237 42.6398 20.6599 6.23265 504548 675624 -397027 305683 -205262 633648 
178 1 39.4516 43.0174 18.7088 5.38299 -1.65462e+06 532892 -902238 15308.5 -797764 -101058 
184 1 40.6969 42.4834 20.6681 5.37401 121265 -446537 -2.12201e+06 -199739 -202742 23901.6 
182 1 41.7929 42.9477 18.4881 3.97489 -882488 -511175 1.02452e+06 486947 520557 217320 
188 1 43.3159 42.2685 20.5465 5.69487 38929.1 91641.1 -1.56122e+06 -1.38655e+06 526528 154895 
186 1 44.3182 43.0848 18.5319 4.98513 942301 -656948 -1.15167e+06 -101822 933877 1.11246e+06 
192 1 45.8537 42.4802 20.3274 5.71568 395517 -467581 34055 250844 -591536 876257 
196 1 48.5152 42.5324 20.4684 5.73684 -2.30722e+06 -671332 -501045 209908 -248967 352960 
199 1 34.9525 45.0711 18.6584 16.9555 577234 360938 1.35207e+06 -489781 -1.19744e+06 201460 
176 1 36.515 44.6533 20.5557 8.53871 -153286 -383339 134674 1.07199e+06 -163982 -377633 
203 1 38.0136 45.114 18.6646 3.20995 369461 -353761 1.33288e+06 220149 450665 902744 
179 1 39.3886 44.752 20.5232 5.66591 -1.35383e+06 871338 -1.31927e+06 -692638 -143264 -1.30776e+06 
211 1 43.1811 45.1884 18.4752 4.027 -936046 -414830 -1.56437e+06 -3025.95 264621 46592 
183 1 41.7938 44.7022 20.4633 5.18121 -962437 620284 -496100 -1.14107e+06 438075 147656 
187 1 44.4127 44.5757 20.5286 6.54251 566371 -668477 -472229 406807 -58298.5 -156582 
191 1 47.1201 44.5625 20.4092 6.01018 -378379 -908350 -84936 -174900 145666 -270060 
219 1 48.4006 45.3508 18.427 4.60478 -579874 -757008 -1.14074e+06 -541937 622554 307171 
195 1 49.5422 44.7932 20.4848 6.39623 -2.12523e+06 -1.19532e+06 -1.57907e+06 -210292 -60596.5 338875 
197 1 34.078 47.3761 18.4951 0 -1.2149e+06 1.02978e+06 -180083 -1.26259e+06 758570 -1.67549e+06 
200 1 36.8706 47.2125 18.3931 3.80987 -977237 442379 -843882 209621 -572106 -156103 
202 1 35.4608 46.7692 20.4483 8.43549 -892169 -2.0657e+06 743722 1.27705e+06 -463289 11239 
206 1 37.9195 46.9518 20.4855 4.80454 -705033 612121 -1.78784e+06 140256 -786488 -118521 
210 1 40.4976 46.8336 20.2313 5.86562 859834 -1.60651e+06 -969526 53752.4 214736 362824 
208 1 41.9256 47.3133 18.3214 4.32014 858280 768523 -429672 -5463.77 558620 321180 
214 1 43.2354 46.7359 20.5159 6.74743 636419 -1.68583e+06 -1.07233e+06 59175.9 -490308 -529677 
218 1 45.7347 46.7828 20.2123 6.37128 -66469.1 887456 -65943.6 457421 -96269.4 108921 
222 1 48.258 46.9787 20.2509 5.93673 -348820 -1.05906e+06 -421624 55995.4 167706 143697 
198 1 34.2464 48.6771 20.4835 15.9771 -186575 -1.16803e+06 128704 971193 -578868 -732116 
201 1 36.7422 49.069 20.4571 5.05966 -348919 -364498 -344128 161890 -9536.1 -276708 
225 1 40.5325 49.5794 18.3591 3.21246 759061 178332 -338061 -14401.6 -167960 164004 
205 1 39.3172 48.9278 20.3913 6.03129 -429567 -374033 -291632 279568 153978 464265 
209 1 41.9639 48.8692 20.3946 6.57969 -289618 -188493 152498 -21569.9 -501804 -54544.1 
213 1 44.4304 48.9749 20.3121 6.17653 -42788.8 -9930.58 -302909 -74858.2 237058 401509 
227 1 45.7142 49.7062 18.316 4.48244 -196011 80205.6 -49564.4 456539 -138690 63223.7 
217 1 47.085 49.1598 20.3091 6.14322 -519177 -52605.3 -1.03199e+06 159528 -206307 -435602 
221 1 49.537 49.0635 20.2993 5.43733 -568027 -464138 273158 175143 503807 462220 
230 1 48.1196 34.3759 23.0405 0 809009 -1.07491e+06 186439 -85027.8 -152018 16708 
239 1 43.1509 36.4198 22.5548 16.1827 -363623 -1.00635e+06 3.76038e+06 -574591 404058 1.37913e+06 
243 1 45.5029 36.6132 22.5431 7.17877 -228079 -620283 757098 -556484 1.5851e+06 -468799 
155 1 46.796 35.125 20.982 12.8601 1.02826e+06 39155.3 261361 102216 179990 318142 
247 1 48.1544 36.6915 22.6134 7.45861 1.2711e+06 -1.229e+06 1.1079e+06 -494220 -125176 421590 
157 1 49.5106 35.074 20.9037 8.4465 1.03487e+06 577645 1.12377e+06 -673761 -819445 504873 
234 1 39.1335 38.9899 22.5888 0 -141833 72485.4 885488 631602 -77734.1 1.04294e+06 
236 1 42.1094 38.778 22.6619 6.82092 -566494 -929727 -1.97543e+06 224357 -63909.9 229.703 
240 1 44.6251 38.7887 22.5525 5.95768 -746667 -22139.7 -1.06914e+06 1.34944e+06 -735124 1.02096e+06 
244 1 47.062 38.9045 22.637 6.85916 235320 -705958 1.77887e+06 -376314 -1.11419e+06 884175 
248 1 49.6264 38.7884 22.639 5.83351 -725886 -1.24348e+06 -913064 394246 584186 207.408 
253 1 37.8947 40.9707 22.5859 19.3052 -963735 -148873 898795 1.09517e+06 -530654 1.3839e+06 
257 1 40.749 40.8928 22.5806 4.67772 -14947.2 -549492 -540904 311432 -490618 -265724 
261 1 43.3701 40.899 22.5796 5.42813 -1.53074e+06 301950 -1.58423e+06 -896260 74046.4 1.65161e+06 
265 1 45.8807 41.1413 22.3443 6.43767 -901138 -829394 -346057 751825 -1.47752e+06 -917683 
269 1 48.523 40.9486 22.4027 6.39754 -1.70422e+06 -679518 -271659 40612.4 -11641.5 281722 
251 1 36.6603 43.1527 22.676 0 684216 534700 -539843 257236 -187838 16694 
254 1 39.4217 43.0078 22.6882 5.11901 -962137 2.11357e+06 -1.09516e+06 -1.11568e+06 -1.09792e+06 -1.57989e+06 
258 1 41.9246 43.2767 22.5717 6.35955 -878443 628915 -653796 -1.26487e+06 96733.8 -414460 
262 1 44.5129 43.112 22.5605 5.2852 391197 108870 -1.07183e+06 589755 -916196 -166168 
266 1 47.1068 43.1478 22.5207 6.06347 -537307 -728112 -124344 -538775 207965 -227256 
270 1 49.4823 43.228 22.4143 5.39503 -724266 318395 -1.08316e+06 -552704 -1.39603e+06 -60620.6 
275 1 35.4883 45.5734 22.7886 0 -890421 -422862 -213655 663439 -592742 452301 
279 1 37.9768 45.4259 22.4233 7.04444 101906 1.2248e+06 -784981 -1.36112e+06 -61930.5 -413440 
283 1 40.5723 45.2873 22.524 5.38381 -593639 -469605 -1.53188e+06 -99213.3 -91333.4 -15658 
287 1 43.2273 45.4381 22.5697 6.14073 75132.3 -820054 -1.77671e+06 84404.5 -218680 263688 
291 1 45.8946 45.4135 22.4737 5.8138 440761 990920 -1.57082e+06 644884 2389.18 327577 
295 1 48.294 45.57 22.3451 5.67406 185544 79118.9 -1.48416e+06 66560.6 382005 -282882 
273 1 34.2389 47.4142 22.6237 0 -2.183e+06 -171229 319676 895102 -331342 380901 
276 1 36.783 47.5673 22.6215 5.57757 -2.62521e+06 -943043 -699106 -41680.5 14242.1 202354 
280 1 39.2565 47.502 22.4454 4.8059 -651594 -515593 -861986 -416862 -508064 137277 
284 1 41.843 47.4756 22.4139 5.20869 1.41587e+06 188599 -543272 502258 414884 298194 
288 1 44.5158 47.5442 22.3265 6.04888 1.29562e+06 -416093 -644542 -313338 -888584 -380962 
292 1 47.0523 47.7388 22.3738 5.95716 205593 -691864 -365069 635745 -93005.2 37550.3 
296 1 49.6453 47.8126 22.4181 5.29039 94216.4 191496 -402957 69023 230406 32100.1 
299 1 35.4352 49.5939 22.5494 6.30686 -354352 790224 -1.07921e+06 -613182 107975 290867 
300 1 37.9721 49.6457 22.449 4.72346 -904998 -872619 -1.03814e+06 11067.1 -92390 104140 
301 1 40.5486 49.7557 22.407 6.16711 145733 450564 251846 124231 98391.9 80822.7 
302 1 43.153 49.7407 22.3684 5.8233 439678 1.22379e+06 58907.7 90590.2 -90740.9 70942.6 
303 1 45.7727 49.765 22.3729 5.72883 -236551 -830927 -129790 194726 -84366.6 -8735.1 
229 1 44.4907 35.8581 24.6876 0 -1.51163e+06 -930746 -1.01312e+06 -108557 576433 129332 
231 1 46.9622 35.7828 24.7489 8.68468 -485782 524209 1.50306e+06 -107973 2.19381e+06 -719563 
233 1 49.4463 35.6656 24.7878 5.40763 556616 794169 2.32809e+06 -537746 -394099 -774959 
238 1 40.4269 38.2219 24.6431 0 3.20301e+06 1.20378e+06 -181203 -470564 170151 -148287 
242 1 43.2181 37.8977 24.5969 6.83425 2.11223e+06 1.19663e+06 -2.00299e+06 15832.4 -705201 340360 
246 1 45.6432 38.06 24.6429 5.92309 476297 248423 -819220 373543 -123892 200661 
250 1 48.4259 38.0435 24.7074 5.72025 467219 787411 -1.12668e+06 -644809 197230 -253484 
235 1 39.1956 40.6475 24.7187 5.92992 -392405 578402 7103.92 -39782 -325197 777813 
237 1 42.0514 40.3196 24.5974 6.50036 416264 1.76955e+06 -1.27095e+06 -834879 -444080 -403992 
241 1 44.532 40.4008 24.6705 5.75161 -739430 351966 542540 608169 -1.58921e+06 421061 
245 1 47.0795 40.4117 24.6292 5.65711 186363 1.16873e+06 1931.47 -22781.6 278580 -256098 
249 1 49.5853 40.2392 24.7214 5.41672 -483600 774125 -1.28265e+06 -1.02708e+06 -481964 -294487 
256 1 37.8756 42.6983 24.7119 7.14843 -515857 163378 1.08671e+06 305661 -685229 1.66351e+06 
260 1 40.6184 42.5494 24.5016 6.03816 -1.10993e+06 -110889 -958903 -182190 -338352 -393395 
264 1 43.1919 42.6328 24.7973 6.46941 -1.01453e+06 -352888 -499531 -113674 10513.7 827618 
268 1 45.7969 42.5231 24.5319 6.06195 434772 -941121 -1.1307e+06 142831 -253381 197287 
272 1 48.5348 42.499 24.6145 5.72703 518016 -679226 -851554 -334039 -28997.6 129074 
252 1 36.6443 44.8582 24.6791 8.37034 -36149.3 553005 254083 115496 -523968 145468 
255 1 39.3284 44.6841 24.5179 6.29772 -509935 -155697 -1.26003e+06 265622 55651.6 -165824 
259 1 41.8966 44.6937 24.6517 6.45945 1.36985e+06 -788527 -1.15604e+06 19904 -76359.3 -67739.3 
263 1 44.6369 44.6801 24.4108 6.82327 907090 -544620 -1.82629e+06 -717375 -330001 103718 
267 1 47.1007 44.7075 24.3962 6.39681 -606819 357939 810274 -381369 -261667 1.22908e+06 
271 1 49.5002 44.7504 24.3763 5.99822 -186617 129960 361674 -340372 -57284.4 -601610 
278 1 35.4277 47.2011 24.8491 6.75288 -288945 97721.4 -300801 -207572 -80549.3 204116 
282 1 37.9997 46.8944 24.5651 5.90511 85670.9 234227 -571633 -229714 -554566 275393 
286 1 40.5851 47.0702 24.5342 5.18393 -78696.2 24297.9 -398069 -80181.9 -71620.8 -136832 
290 1 43.1179 46.9242 24.5648 6.06201 353912 1.01115e+06 -288751 -526170 -661741 -453246 
294 1 45.6362 47.0107 24.5384 6.2597 232861 917038 549611 -520036 -130699 -133904 
298 1 48.1947 47.0232 24.4554 5.86597 963342 -481088 309193 352971 418263 276440 
274 1 33.9952 49.1719 24.6016 0 291001 888778 1.42948e+06 305925 22467.7 2124.26 
277 1 36.7834 49.2029 24.623 5.93687 -396450 862129 -252928 63937.9 -43826.9 -487709 
281 1 39.2349 49.1701 24.4793 5.67104 -462811 62667.7 -246266 89057.7 -12834.4 -93546.1 
285 1 41.8865 49.1712 24.5243 5.53872 29185.4 -742928 661889 -339521 102788 207298 
289 1 44.474 49.1891 24.4862 4.86689 708943 -760920 655362 508238 -658619 668893 
293 1 47.1722 49.2201 24.363 4.98869 485454 -1.51958e+06 636586 -261292 -1.49797e+06 640542 
297 1 49.6484 49.1581 24.5033 5.52865 -658458 -786996 34852.5 -298760 343902 -160529 
306 1 47.2607 34.6544 26.9532 0 -1.5136e+06 -1.19458e+06 -421145 -90490.7 -72723.3 33467.2 
308 1 49.4769 34.2231 26.8886 0 -1.83966e+06 698453 823138 651903 -69527.8 -383947 
315 1 43.3633 36.6382 26.681 0 -306538 -6231.78 -354603 11134.1 255442 148612 
319 1 45.7992 36.6201 26.6517 8.4203 -628483 393579 -678175 445334 79613.5 -219995 
323 1 48.3433 36.6696 26.8946 5.77605 -1.25618e+06 -1.52674e+06 -400095 -205218 370000 1.00372e+06 
310 1 39.4156 39.0617 26.7018 0 -466644 -590819 247202 -597688 273126 201360 
312 1 41.8904 38.6733 26.6567 7.76601 -36754.4 796209 -8334.44 27379.8 -26678.5 -156358 
316 1 44.4671 38.9488 26.5988 5.55827 373657 -1.2554e+06 -948654 168590 318806 -82911.6 
320 1 47.1746 38.931 26.6637 5.89639 547940 -284480 -141234 444391 273849 -86452.7 
324 1 49.6675 38.8101 26.6905 5.63485 -139147 157091 -112542 -973912 -451716 157816 
329 1 37.9213 41.143 26.6021 0 242494 608738 -626116 63249.1 443232 133480 
333 1 40.6307 41.0061 26.6787 4.7146 272182 -196333 228387 -692282 -623248 -493209 
337 1 43.3182 41.0053 26.7269 5.20638 16458.5 -940039 -1.32971e+06 623061 1797.3 161748 
341 1 45.8533 41.0258 26.7364 5.80648 -656929 -250261 -1.20735e+06 64956.1 -370124 -130362 
345 1 48.3899 41.1788 26.7346 5.82818 -1.53047e+06 -135633 -1.83159e+06 -648614 200819 -392840 
327 1 36.3975 43.1863 26.7305 0 588175 1.15157e+06 887355 40057.8 -84194.6 -54874.7 
330 1 39.5063 43.2196 26.5547 5.46873 -132705 134112 87618.9 104251 -144849 239409 
334 1 42.0206 43.2236 26.713 5.47606 -1.18396e+06 -118369 -900313 289497 844704 86280.5 
338 1 44.4358 43.3073 26.6512 5.86417 -740831 216238 -463043 -193574 -521376 -392015 
342 1 47.0178 43.3113 26.528 5.98926 -10695.3 43632.8 -246882 547405 -205148 111473 
346 1 49.6814 43.3131 26.5962 5.78848 -706978 1.44162e+06 227700 787682 38970.1 -393494 
351 1 35.493 45.5889 26.772 0 -738355 -274559 -969746 -207721 -710858 -94865.6 
355 1 38.1821 45.4511 26.7237 5.58645 -296900 169949 -192787 135370 -374445 -386974 
359 1 40.6319 45.4067 26.5704 5.98165 -483731 130378 71154.3 -150198 292823 -118329 
363 1 43.2276 45.4723 26.5985 6.38158 237467 -307575 712633 -211170 -280648 247645 
367 1 45.816 45.5189 26.7743 6.63069 1.0715e+06 206410 835896 -213090 -665529 484723 
371 1 48.5013 45.5826 26.5877 5.46405 389878 627798 1.30574e+06 467868 636811 376342 
349 1 34.202 47.8397 26.8615 0 -1.0431e+06 -239441 163917 276173 45484.9 -853871 
352 1 36.8732 47.6765 26.8729 6.21119 -1.84257e+06 532903 316357 90418.7 -548851 -86320.3 
356 1 39.2487 47.6458 26.6146 5.88821 -708187 75339 -483879 -352640 449008 -80240.1 
360 1 41.8044 47.6692 26.6231 5.47872 -721823 473798 275912 78109.3 -159445 563406 
364 1 44.261 47.7694 26.6001 5.77121 2.11382e+06 -2.27508e+06 58597.8 -448349 75838.8 -157065 
368 1 46.9706 47.8361 26.4978 5.63104 3.00343e+06 -1.97682e+06 1.19473e+06 269737 366482 -122300 
376 1 38.0888 49.9888 26.6402 5.38107 -374955 41930.4 -1.29076e+06 186652 -10222 134303 