ITEM: TIMESTEP
60000
ITEM: NUMBER OF ATOMS
5538
ITEM: BOX BOUNDS pp pp pp
0.102528 99.8975
0.375086 99.6249
-1.5338 101.534
ITEM: ATOMS id type x y z c_csym c_2[1] c_2[2] c_2[3] c_2[4] c_2[5] c_2[6] 
4 1 49.1379 37.2368 7.4958 0 -56923.1 267900 84522 122005 -344285 203506 
10 1 44.3426 40.6681 8.24836 0 424901 -134717 -134141 -134124 -78367.4 -333393 
47 1 38.9051 44.7377 7.83929 0 145261 258702 92181.5 -18525.3 168624 -25194.5 
60 1 44.2992 48.0807 8.03939 0 271439 -186103 306119 -19006.4 9393.14 -234067 
3 1 46.3143 37.1395 10.7169 18.1504 -250444 -138719 126971 386857 -97580 -15158.7 
5 1 48.5286 36.389 9.83287 0 -177116 196957 261042 -248658 282209 -168882 
15 1 45.2546 39.1442 9.91938 12.282 169354 726937 649952 -81115.1 -1.04248e+06 -474413 
2 1 47.5455 38.5123 8.94881 14.6796 875881 292644 173612 72233.7 -380714 -249550 
76 1 48.3188 48.6473 12.2189 6.17718 -1.03833e+06 -1.83133e+06 -2.29787e+06 1.12042e+06 256768 392261 
6 1 42.1138 39.9902 8.95952 0 282192 -313134 -49357.1 -412719 -59664.6 26782.5 
1 1 46.8058 40.8915 8.96715 14.2066 853570 315178 -166579 315173 1519.8 60517.6 
25 1 37.9705 42.7703 8.70636 0 203361 154307 21661.8 49327.7 307596 -145078 
7 1 40.0157 41.5497 9.24834 0 1.37852e+06 708832 23384 -234499 -4341.56 -179306 
9 1 42.5406 42.2818 9.20141 13.9032 1.54928e+06 -536580 13846.1 96192.9 -420708 -67225.9 
11 1 45.135 42.8449 8.80656 0 1.1486e+06 290192 -92574.7 273345 84814.9 422217 
14 1 47.3769 43.0691 9.93885 8.82006 137252 -461363 162193 570927 -366562 -12137.3 
2854 1 49.3205 41.5547 9.30318 15.5396 72831.8 1.29807e+06 -280468 129509 -408752 438154 
24 1 36.6347 44.3649 9.78947 0 -333903 234363 -58526.6 128560 42003.6 -81065 
32 1 40.7095 43.9157 9.26028 0 57471.6 1.26257e+06 198544 -808447 -269025 25820.8 
35 1 43.671 44.1098 10.4485 8.5239 -153840 -101866 -313937 -815855 224286 58054.2 
39 1 45.9976 45.0121 9.99568 10.3435 103176 396506 1.03424e+06 1.02852e+06 571836 834573 
2853 1 49.5064 44.1716 9.45351 13.6884 110531 608402 -942473 211522 -203999 101823 
48 1 35.8194 46.6795 10.6052 0 -223535 296720 530023 -359257 -237934 201484 
50 1 37.1906 46.273 8.47903 0 302142 137905 339906 -100021 45819.9 -65728 
23 1 39.4333 46.1427 9.80137 10.7286 98421.8 2.53425e+06 -550739 -409012 -41986.2 314298 
31 1 41.6862 45.7887 10.3844 11.8284 -313229 54084.1 6348.72 -163114 -519286 -49265.8 
63 1 44.0521 46.4104 9.91982 7.97858 -1.21684e+06 -1.05196e+06 -174542 322704 -14840.3 165142 
66 1 46.1298 47.5456 9.74992 12.9575 261022 348282 100833 -616059 65786 139274 
43 1 48.2924 46.1957 9.97732 11.9605 1.94936e+06 315903 281520 95099.9 -298507 -154501 
45 1 37.708 47.996 10.1084 13.535 -236343 100473 667894 -213849 464804 391741 
52 1 40.2648 48.5647 10.5812 6.01732 -553745 1.20816e+06 -22354.2 1.31485e+06 541905 113173 
62 1 42.3263 47.9895 9.52577 13.5099 -831939 -548889 498983 546651 122890 138652 
61 1 44.4802 49.5209 9.92012 11.6432 667799 28982.9 1.52752e+06 -889004 -216459 1.03345e+06 
2876 1 49.5596 48.3209 10.1889 0 -540347 2.28412e+06 866120 -129874 268884 -1.15734e+06 
19 1 45.5886 35.8285 12.7446 0 -42450.9 -87225.2 -238128 -58046.5 98762.9 39336.3 
22 1 47.9545 35.7687 12.1466 18.6514 121203 -49733.2 -111035 -76328.8 -218541 194314 
18 1 44.5828 37.9696 12.179 10.3306 239517 -366592 1.20043e+06 550113 -530069 -1.20327e+06 
21 1 47.632 38.1954 12.3884 6.25946 -639369 -815963 -273790 -4380.91 -121688 501197 
2837 1 49.6513 38.0395 11.1662 5.64552 421023 -22232.7 -819621 119398 180685 -221208 
29 1 40.665 39.7744 10.9112 0 -349783 -144735 -90926.5 173186 45132 -174172 
8 1 43.0896 39.6256 11.1029 8.99198 35203 307643 831041 332978 -317189 -107768 
12 1 41.7989 41.0795 12.6359 8.42658 -636936 -287246 -1.0332e+06 246504 -93103.4 454050 
13 1 45.9927 39.9915 11.9563 5.76688 130837 -469925 -1.66424e+06 -406396 -326222 45688 
16 1 48.0755 39.9247 10.7809 7.04754 597705 -410830 -1.62315e+06 -9775.72 -921512 625871 
41 1 49.2327 40.006 12.8426 4.91943 -1.37439e+06 -317907 -1.79788e+06 -420168 -1.03985e+06 -147848 
26 1 39.6532 41.8484 11.5967 13.6787 -207130 -279849 -416820 281960 -345924 30455.7 
30 1 41.7143 43.047 11.3832 7.68777 -429060 -433296 147117 303881 225267 530143 
33 1 44.4663 41.598 10.6929 7.80631 167960 1.59131e+06 -908794 -229219 524994 91159 
36 1 43.7641 42.5993 12.6845 6.67542 -129281 1.2113e+06 -973036 -321990 -130165 -197757 
40 1 46.3163 42.3658 12.1576 7.64087 744326 -84693.5 1.12194e+06 9245.49 78783.2 45675 
44 1 48.7695 42.1997 11.76 10.3608 596028 -97883.7 254783 -522573 -158593 625741 
28 1 38.8175 43.9046 10.7322 7.13936 -173182 419914 145367 1834.71 -659708 -225477 
51 1 37.0319 45.1796 12.0723 9.40977 334992 337730 252493 80020.9 -251017 -32896 
27 1 40.3446 44.7779 12.2697 7.12737 676343 638224 -591680 62070.3 -527813 -1.79637e+06 
59 1 42.8182 45.2359 12.4828 5.82746 -660469 1.05659e+06 -1.36175e+06 87640.1 -26179.3 -361755 
64 1 45.3029 44.5515 12.267 5.00511 566096 965311 -224338 255054 172524 -544104 
38 1 47.8237 44.5252 11.9505 4.33338 1115.15 -91297.6 396591 -10170.3 511344 -339055 
49 1 34.8385 46.0562 12.8622 0 -57596.5 216549 163516 -327762 -5035.07 -286770 
54 1 38.8976 46.832 11.9807 10.7071 1.45344e+06 246365 -471712 -126550 -458276 457916 
58 1 41.4196 47.2962 12.3333 8.64278 -64748.7 -66919.3 -97065 34993.4 360321 393007 
75 1 44.3796 47.1202 12.0558 6.18172 -431759 1.08044e+06 -352709 505676 498599 -192287 
70 1 46.7639 46.7831 12.0124 5.10591 -922116 856727 -269332 838188 245448 460557 
68 1 49.3791 46.5432 12.1756 5.45985 -1.1312e+06 476295 780459 815508 298445 -1.52092e+06 
71 1 36.2106 48.7438 11.8829 10.4148 739873 555289 324794 200698 108726 -111472 
53 1 38.7194 49.3829 12.2609 5.83767 852839 1.25199e+06 185043 418024 900917 370031 
56 1 42.9874 48.8993 11.7263 7.2317 -969225 -924334 167104 -456017 48615 420465 
65 1 46.0254 49.123 11.7351 9.20679 -147775 298483 531756 610442 -484107 -66122.1 
84 1 41.6127 37.3131 15.5812 9.99792 -638591 148494 80009.5 -10606.4 3658.3 204829 
90 1 43.4605 36.4374 13.9185 0 -41499.9 -178276 -356541 210068 -306308 4332.86 
94 1 45.3074 35.471 15.1137 9.96013 -1.74599e+06 -130628 -776592 85946.5 641363 386822 
98 1 47.3291 36.4816 14.4152 6.38677 -587655 112734 23751.5 -881143 149732 338893 
81 1 49.2688 35.4191 15.3967 9.96401 -1.233e+06 122087 -298030 71367.7 100081 -508266 
20 1 49.6899 36.9716 13.3919 7.98671 -767154 -158401 338728 1.04399e+06 -476332 65394.8 
85 1 40.3484 39.2265 14.6625 13.4288 -140164 153609 -226984 6049.1 181410 11350.5 
88 1 42.4373 38.6633 13.567 9.20549 -45462.6 -278731 771455 -411922 -41393.2 -463608 
113 1 43.9259 38.1262 15.647 10.7671 -298620 -136210 397912 -120517 295701 -42874 
93 1 45.8297 38.4979 14.1427 7.6033 283076 409290 907308 -742251 -323415 -430114 
97 1 48.4621 38.5863 14.717 8.42823 -93323.1 -168009 114020 -288478 -118410 -372573 
105 1 38.1154 40.1807 15.2373 0 437650 7533.76 191467 -325082 -279326 155241 
112 1 42.1466 40.8026 15.015 8.22538 391978 360916 -756632 -55629.6 59649.1 -286441 
89 1 44.1597 40.2679 13.4547 8.11011 -90535.4 -361030 709517 -529324 315883 -318407 
17 1 47.1288 40.6853 13.8963 8.50048 188852 259514 -498593 -155888 -139185 -283134 
100 1 38.3004 43.2821 13.2291 12.2511 1.3713e+06 664780 1.34876e+06 493900 -708450 -577962 
108 1 39.8073 41.4832 13.9555 10.5112 383556 274789 -440834 459800 426229 126818 
107 1 41.7748 43.27 14.0488 7.57584 651192 1.77745e+06 571216 -83964.9 1.00446e+06 -614427 
37 1 45.3176 42.2195 14.469 7.99912 -123040 147065 -174833 6458.22 -595601 -90160.1 
120 1 48.9975 42.2665 14.2466 7.43505 990055 1.7998e+06 1.25722e+06 -285166 -329638 652788 
121 1 34.1276 45.2598 14.9502 0 -254111 -27025.3 -448692 59115.7 12184.7 215820 
123 1 35.9708 44.0165 14.0076 0 388205 268091 1.46947e+06 -272243 -692420 -563461 
103 1 38.6917 45.5304 14.0342 9.5383 -577939 -317142 -1.24928e+06 234582 -253308 498040 
111 1 43.968 44.418 14.5089 6.08267 -208721 -372461 -555496 44536.4 -501437 304739 
34 1 47.0457 44.0108 14.198 5.60613 428305 881080 921434 -485184 658441 956099 
67 1 49.3356 44.8511 13.9655 9.64071 410144 1.17709e+06 -12043.1 321709 230367 187769 
130 1 36.8166 47.1528 13.6532 7.97169 714514 -22467.7 1.76081e+06 -178446 -520344 -45641.5 
55 1 41.1225 45.7886 14.2642 9.05276 -710969 -658040 -2.25798e+06 109434 -349452 -36501.6 
138 1 43.2814 46.875 14.1602 9.16266 -207056 -887167 -949545 -135010 -155431 117149 
142 1 45.7636 46.1388 14.0863 5.77968 -49830.6 -500679 -1.19556e+06 -551739 278131 -714158 
146 1 48.0637 47.0315 14.1662 6.31043 235385 443676 -536714 -333934 -192079 368916 
126 1 34.6332 48.2585 13.8173 0 -43521.9 -408232 201489 -58049.2 -111424 5710.36 
129 1 37.7252 49.2454 14.4904 9.20537 -461376 399395 -554219 272112 126850 -190396 
134 1 39.8393 47.8925 14.1305 7.89677 62955.3 61792.3 214826 239916 489023 -237473 
133 1 42.0564 48.9863 14.082 7.42748 -70003.6 -667181 291151 133494 138811 -39384.4 
137 1 44.4838 48.9588 13.8575 7.2666 142865 -688031 813821 -184769 155765 -958.261 
140 1 45.9441 47.8917 15.6722 11.0272 -235751 -1.74545e+06 355240 848334 417583 -916263 
141 1 46.9603 49.459 14.0621 8.20761 -80020.3 -106555 96182.7 -522172 172262 -422727 
69 1 49.5867 49.1478 14.2102 5.55045 -260542 850811 -1.18178e+06 -336907 -200411 25956.9 
78 1 46.9999 32.7785 17.3788 0 -735027 -320214 -323919 84660.9 11344.2 -8960.9 
77 1 41.6277 35.0434 17.8754 0 -116168 -500771 -191833 -449536 -52400.7 -6627.97 
79 1 44.9918 34.0897 17.2089 16.4148 -54712.7 202594 -36999.2 213313 73860.3 32164.3 
80 1 49.2903 33.4394 16.8567 0 36473.4 448165 -287272 -553367 736078 -133344 
82 1 40.1428 37.0305 17.4228 15.548 136400 95931.6 -66106.5 -304319 -239686 -15577.8 
87 1 43.2843 35.7336 16.2725 11.0696 -868756 -180252 -1.10087e+06 372015 658295 65210.3 
95 1 47.2562 35.1259 16.6108 9.98989 100157 328940 594426 -762808 597156 -167633 
101 1 37.2722 39.204 17.3503 0 74537.5 256456 29464.6 -352410 -39589.2 -457424 
83 1 39.6953 39.3073 16.9246 7.82859 73575.6 -216216 -868167 -321858 170523 537412 
109 1 42.166 39.3843 16.8643 7.11805 -338230 72810.8 -519815 -21996.9 534513 193934 
163 1 42.5529 37.2332 18.0725 7.82521 -1.20802e+06 -1.32674e+06 -574387 192679 354365 -382069 
164 1 44.409 38.8216 18.1273 7.46826 623416 718005 871596 -315006 -62834.3 312101 
92 1 46.102 37.4328 16.5385 6.79921 357693 -238451 1.23437e+06 -636521 -664329 -293209 
96 1 48.6092 37.2529 16.7386 8.11673 238556 -373277 -501178 -247390 -81366.7 8151.92 
172 1 49.5311 39.0764 18.196 8.58304 65844.7 695232 298054 81635.1 374705 -810142 
104 1 36.348 41.58 16.5555 0 -155007 218085 -282809 -780044 -186794 -67438.7 
177 1 38.3678 41.1741 18.1076 8.41825 -132057 48441.3 1.55691e+06 -890394 -169111 -914641 
116 1 44.3907 40.4861 15.9899 9.83318 -75543.6 -191154 982639 -29137.2 261610 -121977 
117 1 46.6896 39.6918 16.0492 6.34959 -11631.4 -1.20214e+06 -1.00104e+06 -589227 -229447 246178 
189 1 45.8662 41.063 18.0362 3.29806 -82702.8 1.21772e+06 1.32308e+06 5626.4 -408577 91993.6 
2924 1 49.0166 40.5082 16.1212 6.25043 -1.13072e+06 -900528 -407920 -337940 42796.4 -828867 
175 1 36.9301 43.3788 18.013 8.54708 17372 -154296 -10679.7 -455585 -162619 -482368 
99 1 35.1017 43.6466 16.4404 0 -714427 72424.3 1.14421e+06 184548 -755220 288643 
102 1 38.3738 42.5439 15.7188 9.78808 -807860 645526 2.71373e+06 166894 710228 -742015 
106 1 40.7992 42.4964 16.1104 6.68238 -574390 -393579 -439022 -623433 492178 -170987 
110 1 43.3606 42.6567 16.0884 6.82163 355957 -344572 204958 141361 -39918.1 64556.6 
114 1 47.1481 42.1291 16.0894 5.78335 -148560 -533972 251444 155006 -363725 -28179 
199 1 35.5587 45.6053 18.0491 9.10402 291256 1.07633e+06 73851.9 -156604 212526 104652 
127 1 37.2062 44.7013 15.8792 6.10166 -1.12011e+06 -57525.4 72524.2 -220093 13389.3 -79657.1 
203 1 38.0469 45.5788 18.1911 5.64796 366010 -68234.8 563042 -338394 -3462.51 -259659 
131 1 39.6029 44.8073 16.0998 4.90318 -767002 659875 -485350 -362592 -461474 179835 
135 1 42.1043 44.8915 16.2069 6.65124 233646 -199655 299410 -314709 -223989 539005 
115 1 45.578 43.988 16.2482 4.13984 -342196 -6609.39 -749443 -57572.3 24310.1 -78829.8 
118 1 48.6358 44.0386 16.2834 3.5115 -134061 -263470 293955 -180172 -23524.1 139740 
122 1 33.5969 47.5015 15.8685 0 -396778 792756 224888 129210 -31416.4 272935 
197 1 34.2725 47.8735 18.1661 0 457933 995735 -45802.5 -477842 134870 -346231 
124 1 35.814 46.6504 15.8827 8.89043 -1.06489e+06 -895368 90914.7 190566 -353157 -278068 
200 1 36.7922 47.8009 17.9081 4.87353 303533 -178359 1.36724e+06 -89110.7 897721 -793748 
128 1 38.1856 47.119 15.9757 6.13767 -761486 263942 1.86064e+06 -530009 892644 -275087 
132 1 40.6345 47.0348 16.3521 7.87226 191561 45209.2 -484566 -211168 -117061 -63433.6 
139 1 44.2605 46.194 16.2327 5.10266 504024 911960 -372820 -31287.3 98192.8 76347.9 
143 1 47.1154 45.8446 16.17 3.47197 -1.17454e+06 -187753 19148.8 626886 -455466 1.39499e+06 
216 1 46.9405 47.7505 18.0571 1.63585 -245752 450117 2.59855e+06 94812.5 -185369 374949 
144 1 49.5628 46.4336 15.9911 1.51085 3902.69 -389888 620885 -87258.4 -426355 -162143 
227 1 45.7617 49.9674 18.3344 2.47927 -884482 -384618 -1.04568e+06 -439998 -508085 44675.2 
125 1 35.7625 48.9737 15.8497 7.8357 -769606 -637438 802631 -56759 471592 -80320.2 
149 1 39.3201 49.2254 16.3919 6.83174 -585344 1.14887e+06 -917310 -341205 -92803.9 -272316 
136 1 42.8118 48.2664 16.2537 5.31339 -28054.4 264855 -110353 -513097 42703.9 305015 
151 1 44.666 49.5786 16.3204 5.83235 -1.95597e+06 -1.83932e+06 -251057 552935 94364.6 -746640 
145 1 48.245 48.632 16.146 1.72333 -418093 -67782 -172548 -575719 344861 94695 
91 1 43.4981 34.1856 19.0886 0 -463682 -713381 -498022 -20433.9 41418.9 -320422 
154 1 45.9734 33.5511 19.4365 0 229802 131539 -259004 -253960 -195902 35394.4 
156 1 48.3445 34.1905 18.9148 11.9719 628292 72032.6 -114152 65243.7 575901 -657812 
86 1 42.1989 35.9427 20.0934 15.3581 1.61135e+06 -161326 -21883.5 -176251 258616 -188703 
167 1 44.7293 36.2959 18.2389 9.34888 -137487 203082 690399 356303 376037 539041 
171 1 47.1399 36.3817 18.7401 7.64645 -49278.5 61930.5 480781 87332.8 358168 214083 
2980 1 49.5779 36.4777 18.7984 8.17122 91348.2 1.4582e+06 528040 262293 -24890.6 -10926.8 
158 1 38.5923 38.215 19.0498 0 268182 191176 -336887 -323775 437703 605689 
160 1 41.0412 38.7209 19.061 5.64028 -506271 -1.42199e+06 -1.24489e+06 -585697 235960 -255019 
166 1 43.2552 38.1825 20.2575 5.72917 248121 -457137 -229063 -204589 254705 -215447 
170 1 45.6736 37.8737 20.1825 6.03556 797802 2.0674e+06 483893 1.22577e+06 690303 418010 
168 1 47.0648 38.7821 18.2737 6.58187 259421 1.21012e+06 -940450 901349 -322904 18808.4 
174 1 48.3735 38.0762 20.3195 7.07618 590344 524318 65470.5 122101 -47687.3 79141.5 
181 1 40.9081 41.0866 18.0979 8.46661 25413.3 -930184 419356 -17720.7 -59970.7 -194648 
159 1 39.3108 40.2742 20.2412 8.9549 746080 638621 925352 -112725 -316378 -335769 
185 1 43.3494 41.1102 18.2305 7.62127 -331732 -28468.1 732633 -6015.38 -143472 -200065 
161 1 41.9948 40.3593 20.3421 6.68014 -11610.4 -697369 -168591 -538612 -536116 -807720 
165 1 44.5674 40.2402 20.3139 5.86106 -360225 41300.5 773741 -196352 -394075 -184435 
169 1 46.9963 40.3362 20.2543 5.94992 -151387 1.3309e+06 -523109 885095 232587 -162976 
193 1 48.3056 41.2534 18.2146 2.01151 -13688.7 791893 -728876 1.36593e+06 325723 -460219 
173 1 49.5666 40.4028 20.4157 5.98658 91200.4 233816 -240267 -61769.7 33843.8 -42258.3 
180 1 37.9801 42.4608 20.2133 11.4161 348187 549266 375561 -69055.7 249518 -137428 
178 1 39.4833 43.2882 18.1175 5.74197 -288007 -300399 927228 -62943.9 773827 430238 
184 1 40.5023 42.4168 20.2821 4.63464 743791 516177 1.14663e+06 325093 389524 -62172.6 
182 1 41.9539 43.2842 18.1528 6.93912 -232426 -25894.1 969030 -36153.2 -229388 -123417 
188 1 43.1692 42.5235 20.4206 6.07371 648893 -185566 233913 -718540 137501 38225.5 
186 1 44.4689 43.3184 18.2686 4.01854 137596 293887 -629586 -579078 205715 -16269.4 
190 1 47.0984 43.4207 18.2823 0.582205 -35254 -326590 134008 492892 -122883 12672.9 
192 1 45.7818 42.5526 20.3067 6.78915 -133061 134192 597373 90951.8 -117746 237843 
194 1 49.5973 43.2994 18.4222 2.17896 -877184 -325107 -829377 114955 -75667.2 100920 
196 1 48.2406 42.5501 20.3937 5.43581 -645599 -61853.3 -595818 39539.9 95455 -152277 
176 1 36.6544 44.675 20.1857 10.8238 283465 210999 26328.6 -164870 -100979 8761.1 
179 1 39.2351 44.7064 20.2896 5.04392 459032 246073 549900 45231.8 186428 448969 
207 1 40.6972 45.5092 18.3387 5.67725 252373 -288000 -488513 -141736 -211972 131930 
211 1 43.2465 45.556 18.3899 4.89205 -102635 152870 -1.11106e+06 49637.4 -118513 230986 
183 1 41.7718 44.7396 20.4127 5.2316 87019.2 633420 -322634 111221 85383.5 190676 
187 1 44.3144 44.6581 20.2667 5.70775 276448 -466530 -723455 102348 -240703 183597 
215 1 45.7571 45.535 18.2528 0.651329 -387753 -886728 -440132 -84122.1 273727 -328724 
191 1 46.9874 44.7666 20.4203 6.30023 282661 -167471 -24724.7 190286 799.918 -108747 
219 1 48.3005 45.6208 18.2443 0.577589 -511045 -528121 -408882 34416.1 -604914 -190499 
195 1 49.5407 44.8135 20.3137 6.19054 -226999 -624962 -460206 -43106.7 -95124 -290300 
202 1 35.2025 46.7388 20.1572 13.5366 754993 422244 -26680 111541 -23816.7 33188.6 
206 1 37.7912 46.8893 20.2962 4.87521 938995 -704677 1.37974e+06 347856 979664 -650882 
204 1 39.2676 47.7133 18.3836 6.38769 -18731.8 -663372 -150058 -10702.9 234322 128071 
210 1 40.4237 46.9166 20.4424 4.85444 341758 -360611 -445765 169939 -261207 148047 
208 1 41.922 47.6794 18.4007 4.29081 378118 47379 -907550 -293786 -115127 -40004.7 
214 1 43.0861 46.9338 20.4225 5.76021 396486 -240188 -183788 211767 -316216 -275336 
212 1 44.5394 47.7642 18.2472 3.43324 -498864 -138765 319862 247080 -317928 -335024 
218 1 45.6823 46.8659 20.2798 5.45458 748055 173015 800757 568795 -775283 -568135 
220 1 49.5402 47.7325 18.1914 0.173513 -353565 -306080 63920.3 -214632 81032 235948 
222 1 48.2868 47.0244 20.3155 6.13271 412810 -99547.7 189094 -33932.4 292326 -251358 
198 1 34.2813 49.1791 20.2261 16.4954 -52899.8 300697 163631 113244 61481.7 -176667 
201 1 36.7036 48.9586 20.2375 4.86193 -577130 -241714 30103.8 829879 5289.27 519079 
205 1 39.1998 49.0717 20.4599 5.52369 -296172 64448.7 -1.16748e+06 347649 -73384.6 54001.6 
224 1 38.0777 49.9297 18.4202 3.28924 -1.47335e+06 -1.21769e+06 -1.51325e+06 478637 -109618 141974 
225 1 40.5737 49.929 18.4505 4.33328 -440956 -276885 -983675 -352177 -118799 -90179.2 
209 1 41.7741 49.0968 20.4267 5.7729 -120896 -374020 -815241 76374 -218765 -19913.6 
226 1 43.1468 49.9016 18.3086 3.45211 -18043 -472669 169328 164844 169261 58355.9 
213 1 44.336 49.0763 20.3733 5.38121 51939.6 -146232 -33084.2 1150.13 -17726.4 -66491.1 
301 1 40.5403 49.9053 22.4998 6.15412 112830 39347.8 -90027.1 -162071 1367.13 23729.9 
217 1 46.9269 49.1743 20.3677 6.07131 -95499.7 329738 -92168.4 186805 -189890 515341 
303 1 45.6173 49.9292 22.4276 6.03624 212857 27517.9 -483212 185360 32624.8 467204 
221 1 49.4979 49.2239 20.3975 6.59164 -380955 35020.6 89162.2 -298157 73667.7 37492.2 
157 1 49.801 35.0392 20.8421 8.27093 259756 204080 276243 -40151.8 -30257.5 65354.6 
230 1 48.6957 34.229 22.9161 0 117367 37420.7 92622.9 -274935 124419 60201.1 
239 1 43.4633 36.6333 22.1928 11.6895 -424268 -410021 535183 -51645.6 593627 -193873 
153 1 44.7579 35.5764 20.5637 11.2607 1.26493e+06 -163325 -579939 -322973 193306 -512390 
155 1 47.1979 34.9853 20.9326 11.2359 263415 -44736.6 317045 -341008 248339 -938651 
243 1 46.064 36.601 22.4017 7.27262 -622277 -516719 -31540.8 -79804.5 91436.4 -228783 
247 1 48.4952 36.6046 22.2849 9.14586 -249339 142210 -272162 -795602 100408 49463.5 
162 1 40.2739 37.393 20.7244 20.3681 879280 149808 29856.8 -182160 679348 720415 
234 1 39.4673 38.9095 22.3993 0 -333286 -415176 428397 -132470 247049 -548687 
236 1 41.9087 38.6324 22.3034 9.22509 909819 860275 987791 781678 253195 128351 
240 1 44.6207 38.7254 22.4217 5.38911 -285081 -382034 -111245 -212745 -92844.9 -222490 
244 1 47.0163 38.8646 22.2783 6.15338 -371393 384500 467391 -729608 438469 130585 
248 1 49.576 38.8345 22.4475 6.15907 21980.5 -675956 -528661 52183.4 91192.7 -151754 
253 1 38.2784 41.1313 22.3588 0 -311703 7164.19 -124765 -18000 -14061.6 -29960.5 
257 1 40.7419 40.9539 22.4283 5.23483 -441695 542193 697952 -679635 -450581 -304287 
261 1 43.2331 40.9502 22.4715 6.29937 -84626.8 583644 -54158.1 -12609.5 -362703 -6825.36 
265 1 45.7846 41.0498 22.3558 5.86045 -52837.9 32539.1 -174078 88432 -117.575 -47426.1 
269 1 48.3073 40.9796 22.5183 6.35143 -331927 -116382 -485860 118150 -79399 -89978.5 
251 1 37.0481 43.4395 22.2835 0 -345766 3963.89 38697.4 -309524 112496 -122910 
254 1 39.458 43.3444 22.3194 4.83485 -891129 209539 206932 -303831 10964.6 -162233 
258 1 41.8933 43.2011 22.4892 6.25271 -508446 -253236 619946 232545 440923 -37972.4 
262 1 44.4254 43.2082 22.4709 6.12911 143940 30096.2 -87789.3 -171671 -59682.1 63752 
266 1 47.1073 43.2662 22.4946 5.72815 220569 362475 -225907 65175.8 71735.7 -68126.1 
270 1 49.5856 43.3182 22.4002 6.04017 -758816 10771.9 -469923 131380 115269 -125246 
275 1 35.7175 45.6024 22.3278 0 -266419 -289356 -176700 -72509.9 94068.2 -225195 
279 1 38.1265 45.5506 22.4167 4.72783 -568206 -713813 168159 -166483 198698 123806 
283 1 40.6427 45.4729 22.4638 5.26783 -506545 -734187 -159053 -131891 545332 154463 
287 1 43.1146 45.4098 22.5218 5.89928 -501082 -82610.2 -151059 -38022.1 -181481 -495.526 
291 1 45.6205 45.4028 22.4595 6.16748 223048 153488 78746.7 93267.3 49704.6 -104668 
295 1 48.3073 45.5566 22.4148 6.11833 234438 -114885 109141 25503.6 -45656.5 -154793 
276 1 36.799 47.7809 22.4408 4.61765 -1.0429e+06 -873534 -11393.1 -301250 -273401 -95895.4 
280 1 39.2691 47.7526 22.5321 5.13581 -409912 -586098 -392376 104078 278944 487613 
284 1 41.8236 47.6341 22.4738 6.13983 82518.8 -188776 -442393 -96796.7 36083.2 104703 
288 1 44.4504 47.6236 22.5171 5.89084 290726 238803 -127439 29361.1 -223842 5992.38 
292 1 46.9851 47.687 22.4262 6.23428 38623.9 55611.7 -149723 125020 32868.4 -12668.2 
296 1 49.517 47.7367 22.4796 6.09131 195382 -36572.2 -300274 -129291 -96647.2 -138399 
273 1 34.4521 47.8443 22.3565 0 -680089 -426556 406195 -237434 -107661 85954.3 
379 1 45.7317 49.8339 26.5988 6.10259 -5835.26 -169636 -166301 201439 -134383 152061 
147 1 33.7767 49.9897 16.6242 17.6092 -349843 1.37139e+06 200452 523105 48544.5 -399187 
377 1 40.5764 49.9346 26.687 5.90846 -160420 -208093 -300657 -221610 -61392 -42275.6 
304 1 48.1901 49.9238 22.437 6.18199 397281 109654 -72179.6 -215810 67383 -87238.9 
229 1 44.7299 35.9135 24.3683 0 395758 207009 660175 -345010 281934 23880.6 
231 1 47.2065 35.6922 24.4187 8.88282 95875.7 642241 303801 -221533 -84318.2 -84152.5 
233 1 49.7237 35.7229 24.523 5.65186 -205481 550045 205291 84985.7 -199671 -363475 
238 1 40.5878 38.1619 24.5969 0 192869 -209833 572614 -88594.6 -147294 -232870 
242 1 43.1375 37.9993 24.383 6.80561 512202 970180 305185 9072.62 80349.3 -133481 
246 1 45.884 38.0719 24.4667 6.13878 -80793.7 -396599 -46909 -90407.9 -8601.85 -122622 
250 1 48.339 37.9299 24.4408 5.07471 554889 864383 880903 -119391 41547.3 378366 
235 1 39.1491 40.2132 24.4958 11.3967 892037 -80387.3 276857 578109 -38869 -53676.2 
237 1 41.8817 40.2226 24.564 6.10412 935608 170714 189246 -269832 3509.27 54415.7 
241 1 44.5624 40.18 24.4491 6.176 183852 173172 -102762 208858 -109957 -21925.2 
245 1 47.0768 40.2561 24.5544 5.82771 99254.8 380009 162329 -266631 210732 45146.3 
249 1 49.6433 40.2469 24.4723 5.5639 411850 196938 -355562 -52244.4 -304026 175113 
256 1 37.9841 42.3938 24.4547 10.8635 213982 -189427 695093 100427 -178141 -351605 
260 1 40.4926 42.453 24.5679 4.76144 824255 427910 438655 106244 -34238.1 69357.1 
264 1 43.2598 42.4517 24.5419 6.22578 449539 91732.3 -359606 -168749 83419.8 283662 
268 1 45.7431 42.4293 24.5487 5.61777 89246.1 105098 -203321 -14036.6 41824.1 84308.9 
272 1 48.3757 42.4889 24.5437 5.52083 66120.5 250248 -89109.5 -7689.92 9726.1 26174.5 
252 1 36.6902 44.5563 24.4605 10.692 132505 430689 -314797 -32835.6 293997 323442 
255 1 39.1892 44.5469 24.5301 4.50303 397912 206940 349073 167638 177076 146187 
259 1 41.8104 44.602 24.5673 5.26473 296164 320886 -291802 -160295 71521.1 -73341 
263 1 44.3454 44.7208 24.5946 5.57071 82807.2 -157323 -404819 -67285.9 -126828 206551 
267 1 46.9234 44.6956 24.557 6.07334 587240 31932.1 -211901 75337.9 -101804 105251 
271 1 49.5766 44.7521 24.5464 6.15847 261131 498539 214400 -63021.2 -82613.4 -156422 
278 1 35.3128 46.7352 24.4344 12.0919 757830 175650 -311672 85407.7 -181935 -173293 
282 1 37.8864 46.8361 24.5981 4.54022 667321 19712 -468989 165843 25931.7 230997 
286 1 40.4285 46.8434 24.4857 5.28472 541574 577324 -161423 186007 -140640 -16986.1 
290 1 43.0316 46.9022 24.544 5.90544 404593 131628 -285554 157741 40885.2 -101023 
294 1 45.6674 46.863 24.5156 6.16886 49890.3 -99256.6 -100208 62206.9 -177858 -38455.4 
298 1 48.1921 46.9459 24.5516 5.68019 155868 -103042 -387949 115130 77307.5 63314.7 
274 1 34.3875 49.0556 24.5196 0 -818980 -182199 16429.3 95777.7 123831 288855 
277 1 36.7387 48.9873 24.5667 4.63091 -956827 863458 572291 -282699 437126 -124951 
281 1 39.1679 49.0897 24.5993 5.34352 -203743 11935.1 -424299 89899.1 24216.9 -125647 
285 1 41.7649 49.1173 24.592 5.92489 575999 380199 249672 174047 -30640.3 64767.1 
289 1 44.372 49.1045 24.534 5.76759 524202 350524 -121379 -35072 15668.4 -79568 
293 1 46.9506 49.0903 24.5028 5.91531 123730 -203424 -246498 56520.4 52041.6 -135860 
297 1 49.5443 49.0622 24.5261 5.93212 -65808.8 -228153 -411625 341729 88360.7 -413411 
306 1 47.2003 34.3285 26.5298 0 -491086 319813 587940 -55083.1 -3778.08 -97609.3 
308 1 49.4998 34.4199 26.7108 0 -111303 -151973 778295 -286835 -38225.4 -99867.9 
315 1 43.5822 36.5148 26.5347 0 162286 433432 957153 -365577 -4660.93 -18399.9 
319 1 46.0458 36.5152 26.5512 6.33893 -6743.1 265338 670606 212441 -79459.3 130586 
323 1 48.526 36.6463 26.5339 5.31707 -237383 219867 -63452.3 -37449.9 -51043 -197200 
310 1 39.4591 38.8936 26.6461 0 239526 -43835.6 20957.2 -108303 58471.5 -17371 
312 1 42.0463 38.6319 26.5623 6.79392 472729 599549 -228290 165748 -259775 -12402.5 
316 1 44.6029 38.7389 26.5448 6.08667 -20443.1 120877 478154 -32707.8 13087.6 63408.2 
320 1 47.0566 38.8224 26.7266 6.06674 -135893 183870 161382 40287.1 -174587 120434 
324 1 49.5786 38.9955 26.6206 4.9748 400688 31646.4 553899 147843 82974.4 183486 
329 1 38.2781 41.1471 26.6571 0 -208588 231561 119740 -61436.9 36993.5 -207538 
333 1 40.7349 40.9981 26.6002 5.22531 -276180 -752874 361287 -22043.8 351812 -97728.5 
337 1 43.2414 40.9923 26.5448 6.70996 13073.1 423730 32862.5 68051 -79825.7 170600 
341 1 45.801 41.0416 26.598 5.78309 32174.3 -27873.1 -177504 87580.3 68088.5 69544.5 
345 1 48.2974 41.1739 26.6703 5.33915 348534 -113456 144934 -24514.3 -165426 72933.2 
327 1 37.0587 43.4221 26.5902 0 -330289 -230852 -146324 -277422 -76800.6 106701 
330 1 39.4661 43.3096 26.7158 4.98705 -869077 -563834 -285624 295532 -230285 25978.8 
334 1 41.8991 43.1271 26.6397 6.00057 -333862 -680252 22453.8 -46556.9 108939 110085 
338 1 44.5555 43.2493 26.6018 5.56774 -249455 -408587 -258978 -96208.3 -57195 127987 
342 1 47.0151 43.3616 26.5697 5.76597 -329902 -401765 -258500 -35653.5 -41142.1 188810 
346 1 49.6023 43.3282 26.7052 5.83205 -70983.9 -192401 -257483 -296091 -30896.9 -58371.8 
351 1 35.7525 45.6145 26.5643 0 -313902 -175592 18792 -160041 -99238.7 154867 
355 1 38.1693 45.5631 26.6143 4.41626 -568847 -1.01018e+06 -77151.8 106245 -246669 12098.2 
359 1 40.654 45.4399 26.6356 5.21189 -591465 -259171 535127 19186.1 -203912 -251229 
363 1 43.0704 45.3773 26.6901 6.22075 -806346 -17476.4 -295035 117180 11655.3 -138999 
367 1 45.5992 45.4357 26.7215 6.19281 -242221 -600781 -314037 -66026.7 115466 -269211 
371 1 48.233 45.5227 26.6112 5.92383 179123 -369400 49266.7 -89175.4 -9349.97 89054.5 
356 1 39.2936 47.7481 26.6542 5.1665 -281289 -199854 263110 -228231 -235979 -47081 
360 1 41.8955 47.6045 26.6336 5.81528 190449 104048 -110990 49641.3 2552.98 77620 
364 1 44.4094 47.6472 26.617 6.28746 1164.09 -19092.4 126899 169043 -45574 59726.8 
368 1 46.9758 47.6595 26.6349 6.49016 143862 -286884 -39691.7 266349 229312 -148082 
372 1 49.5984 47.6385 26.6385 5.80097 141553 -160581 170764 157192 -9542.43 -7655.89 
349 1 34.4395 47.792 26.5778 0 -48740.3 97282.5 136064 -61076.2 -18638.4 143277 
352 1 36.8772 47.7548 26.7089 4.86882 -916105 -701981 -262979 -9558.66 78672.6 -32149.7 
378 1 43.197 49.8809 26.6833 5.55684 148208 -66911.7 -109749 70520.7 112294 51974 
302 1 43.083 49.9185 22.4431 5.77153 107817 80276.1 -457711 -167970 -83224.1 277561 
380 1 48.3177 49.8345 26.5329 6.28771 92859.5 41315.8 -383798 -4552.01 182926 156935 
300 1 37.9291 49.8748 22.4286 5.55978 -141756 -1.00616e+06 18860.7 -63191.6 316752 248640 
376 1 38.0783 49.9659 26.7038 4.86857 -378980 -666503 -730434 -40150.7 137003 -179725 
299 1 35.4628 49.9977 22.3984 6.58137 344057 -338973 899864 -624360 255047 -119903 
305 1 44.6378 35.9429 28.7247 0 239485 -413570 129774 9895.32 318029 -201808 
307 1 47.1595 35.6299 28.6425 9.6396 1.18987e+06 1.0373e+06 633733 31009.4 -162063 46598.2 
309 1 49.7462 35.7862 28.7639 7.22713 805139 293440 451356 -134500 -48068.3 -81882.1 
314 1 40.6762 38.2452 28.7181 0 232441 -213035 95079.8 143635 54444.6 -140912 
318 1 43.2401 38.0278 28.6921 6.79667 110122 397011 -298698 254326 -317510 173361 
322 1 45.8208 38.0401 28.7383 5.47223 -167945 42314.8 273849 -579092 258237 -25110.4 
326 1 48.3647 37.94 28.7155 4.72007 175280 1.09488e+06 -2597.74 452878 -93262.3 -53250.1 
311 1 39.2904 40.248 28.7781 10.1864 -10569.6 402477 -350235 112420 -203345 -111369 
313 1 41.9759 40.3027 28.6903 5.91453 118806 288815 426356 -123032 -41997.7 16132.2 
317 1 44.5111 40.2611 28.6874 5.97464 208951 441903 322054 -50201.2 -5484.8 134108 
321 1 47.0586 40.219 28.7848 5.57294 341971 81200.9 -439925 -170543 120596 -63762.7 
325 1 49.6808 40.3904 28.7392 6.26719 349630 605701 883.665 152910 -92425.7 -142613 
332 1 37.8661 42.4436 28.7602 11.9869 650493 436596 -202201 90914 -41800.7 -106857 