ITEM: TIMESTEP
50000
ITEM: NUMBER OF ATOMS
5538
ITEM: BOX BOUNDS pp pp pp
0.102528 99.8975
0.375086 99.6249
-1.48257 101.483
ITEM: ATOMS id type x y z c_csym c_2[1] c_2[2] c_2[3] c_2[4] c_2[5] c_2[6] 
4 1 48.9064 37.1701 7.53528 0 -770983 -47754.9 -245223 537117 167051 -134415 
10 1 44.197 40.4333 8.21068 0 1.01079e+06 407912 371013 -358667 -171326 553501 
47 1 38.9315 44.5903 7.78203 0 263222 761085 266278 64350.9 -305526 -151905 
60 1 44.3522 47.7534 8.01276 0 -6132.57 -186119 75835.9 55400.3 93570.7 39844.8 
5 1 48.3978 36.325 9.92445 0 -222203 -6118.6 56115.9 -287753 489666 -205240 
15 1 45.0777 39.0277 9.89185 12.9106 311187 519240 590791 -64473.2 -928182 -423908 
2 1 47.3821 38.3723 8.90908 15.4486 469075 130392 -28354.1 275717 -100793 -469343 
76 1 48.3855 48.381 12.2446 7.74852 -648362 -1.77493e+06 -2.46901e+06 549526 214801 26359.5 
6 1 41.9448 39.9118 8.97015 0 -141217 -425492 123406 -140738 172060 -69830.4 
1 1 46.7763 40.7781 8.731 16.5724 1.73326e+06 597539 197019 481240 224401 17939.2 
25 1 37.9908 42.6072 8.98244 0 -6400.92 508486 -66515 127688 -313791 -471324 
7 1 40.0357 41.4831 9.33988 0 200834 -630009 92305.3 -24210.6 -220536 -2251.44 
9 1 42.5038 42.2184 9.17397 13.739 850215 71325.3 438211 -893267 -505511 76859.5 
11 1 45.0421 42.6885 8.80617 0 695749 822438 148845 82645.2 287216 411214 
14 1 47.314 42.8646 9.98359 8.37576 -146299 -561977 336496 1.09549e+06 -485275 -134435 
2854 1 49.1996 41.5011 9.41093 14.6912 393758 246515 -114348 911433 354786 45430.6 
24 1 36.5023 44.2349 10.061 0 -646333 -470105 -318926 -91243.9 -91513.4 454876 
32 1 40.5067 43.7518 9.34382 0 -7826.53 -450555 227295 -198892 101425 -141944 
35 1 43.6029 43.8976 10.5436 8.33518 470121 98140.6 -1.15944e+06 -456667 30868.1 11055.3 
39 1 45.945 44.8326 10.0249 10.9206 -452951 277411 339818 918354 -507190 198948 
2853 1 49.4363 44.0505 9.22856 18.8652 656963 255571 260154 231335 19512 -195549 
48 1 35.7276 46.4937 10.8152 0 268186 389249 140380 295777 -93306.9 132172 
50 1 37.1842 46.0138 8.86263 0 -114052 -281676 -216315 -361273 -137860 547542 
45 1 37.7624 47.9834 10.2289 12.8721 105007 -234197 779845 87593 323599 802891 
23 1 39.367 46.0146 9.78095 10.4891 -144550 848564 347716 452401 -185064 61244.9 
31 1 41.684 45.6358 10.4196 12.349 593893 729247 136047 -44112.8 -235423 -54820.2 
63 1 44.0481 46.2322 9.9327 8.15103 -1.31003e+06 -1.04999e+06 -221672 478144 -1075.38 296282 
66 1 46.0885 47.3814 9.76116 12.3477 327552 870309 -216925 -1.03039e+06 -72743.3 -191626 
43 1 48.175 45.9741 9.8183 12.1061 668585 224495 292727 190139 313838 -85122 
52 1 40.2347 48.3723 10.4743 7.71224 -259350 992744 665608 662811 222258 -216702 
62 1 42.3616 47.8329 9.48095 14.2314 -844103 -608561 51458.7 594424 16322.2 -58251.3 
61 1 44.3538 49.3006 9.92801 11.8011 209781 645530 6993.51 -779196 -153326 484124 
2876 1 49.4579 48.1001 10.1839 0 -410432 870803 -689711 -77733 527456 -26803.6 
19 1 45.6419 35.6463 12.8216 0 498216 499513 -60456.5 -328380 -60753 10549.4 
3 1 46.2143 37.0185 10.7222 18.2331 -363752 136201 427048 434567 28422.4 -198142 
22 1 47.9774 35.7786 12.2024 0 -330088 -438854 -377980 53356 -106918 312718 
18 1 44.5163 37.873 12.1696 10.6749 287624 110825 1.31551e+06 -79554.6 -323392 -862586 
21 1 47.4903 38.0784 12.4754 5.96526 57530.6 -861403 186510 196963 -309254 478241 
2837 1 49.6362 37.9437 11.1635 5.46712 770272 666815 -56960.2 -81028.1 -324361 -47627.7 
29 1 40.5076 39.6609 10.9186 0 -358619 -444282 -474800 123098 -100404 -224327 
8 1 42.9622 39.4637 11.1215 9.48425 -15724.3 111739 1.12213e+06 386028 144912 -160670 
12 1 41.6736 40.8371 12.6155 8.75402 -92059.8 455385 -1.10318e+06 443032 -122589 964582 
13 1 45.9211 39.8034 11.9414 3.93421 -992185 -368646 -928059 -408095 369525 -146771 
16 1 47.836 39.8445 10.7281 7.55073 -574892 387457 -597742 -143935 -3085.68 189721 
41 1 49.1023 39.9555 12.8154 5.15589 -165832 -858299 -807125 -482409 -490965 177921 
26 1 39.5557 41.7178 11.7097 12.5391 -710291 -35538.6 278215 -15864.7 -227536 -246907 
30 1 41.5622 42.8643 11.4714 7.81266 -258144 -1.01293e+06 470238 -359325 -91470.1 170770 
33 1 44.3381 41.4289 10.7545 8.61826 512629 1.24095e+06 80444.3 -142714 774090 -19291.8 
36 1 43.7481 42.3909 12.7395 7.57582 403506 -474831 -954228 534259 257582 396139 
40 1 46.2235 42.2381 12.2598 7.20231 390771 -757143 1.37686e+06 527075 39233.1 249569 
44 1 48.6746 42.0631 11.7852 10.6755 904741 -35339.2 -753989 -768014 -783512 1.30402e+06 
28 1 38.6775 43.8914 10.8456 7.22086 -1.37934e+06 594429 -363146 -222533 -1.02877e+06 -939922 
51 1 37.1066 45.1551 12.2771 8.62772 -318097 37127.2 5160.28 232615 44695 -359948 
27 1 40.2336 44.6638 12.3115 7.32914 270242 -301252 242595 -1.17043e+06 -440370 -1.74477e+06 
59 1 42.8406 44.9543 12.4961 5.84581 -216081 -888177 -1.26961e+06 785388 -269575 -298741 
64 1 45.2939 44.3408 12.38 5.81115 -379147 17913.2 -11937.4 66493.4 89359.5 -646616 
38 1 47.6924 44.3434 11.9272 4.21457 -1.17463e+06 -561858 271808 77744.7 -79231 -55535.8 
49 1 34.9202 45.9303 13.0713 0 -483080 -298906 -210284 -188201 94541.4 -237692 
54 1 38.9077 46.8653 12.1039 10.3433 888849 584784 426701 -391414 -1.17899e+06 -120008 
58 1 41.3294 47.0737 12.3341 8.04259 -383768 -1.28285e+06 679873 -914631 989681 -16797.5 
75 1 44.3605 46.9082 12.1156 6.47619 -130163 1.64676e+06 -868251 122655 367069 -551836 
70 1 46.7106 46.5431 12.0001 5.88637 172283 -292737 333878 310987 355145 -546150 
68 1 49.3827 46.2908 11.9749 5.25503 -292938 -1.52584e+06 534853 588887 506205 -443260 
71 1 36.2632 48.5842 12.0708 10.4865 458198 702157 82181.9 395720 1883.2 -137089 
53 1 38.6429 49.4233 12.3335 6.09201 406427 705462 175921 228346 475070 689165 
56 1 42.798 48.7419 11.6832 8.07854 -405138 -21961.5 -139317 -359497 569298 232438 
65 1 45.9847 48.9483 11.607 10.2348 495665 566845 82548.8 894894 -610546 -412481 
2851 1 49.8237 39.0723 8.99614 11.3465 1.39155e+06 461163 603753 -91464.1 578204 177047 
90 1 43.4587 36.3724 13.9584 0 493564 -624070 171933 73114.3 -961790 -274716 
94 1 45.237 35.2829 15.1503 15.1018 -655733 83612.1 -671160 342330 306897 438169 
98 1 47.3394 36.4916 14.5063 5.65462 -58560.4 -259774 422453 -486886 -38654.7 53860.5 
81 1 49.2144 35.2422 15.3642 11.8487 -1.29453e+06 597205 91974.7 522765 -263207 -587228 
20 1 49.6788 36.9712 13.4881 8.42481 -357091 535908 286730 1.37554e+06 -774672 -694363 
85 1 40.4406 39.1968 15.1172 10.3019 -323094 -299050 162436 -256543 158154 -7183.44 
88 1 42.3286 38.5037 13.5804 10.3382 908394 -404778 1.71396e+06 13164.8 -180613 -673157 
84 1 41.4537 37.0402 15.6196 12.0079 390607 -8324.09 1.71531e+06 229045 -104938 -184763 
93 1 45.7465 38.4933 14.2543 5.51319 715108 116066 756475 -471342 -117615 -715810 
97 1 48.4328 38.5487 14.7562 8.31824 -89627.7 -1.58483e+06 -536313 -636902 -115662 -1.16418e+06 
105 1 38.1817 40.0105 15.5608 0 121541 297700 128099 251187 -199268 -166139 
112 1 42.2431 40.6891 14.9681 8.67685 -796449 397446 -467218 -150702 -150982 -79278.9 
89 1 44.1234 40.1357 13.5005 8.32463 159214 -139421 573557 -221679 745829 24403.4 
17 1 47.044 40.5803 13.9442 8.69243 -135036 -33333.7 -556820 107537 181215 50267.6 
100 1 38.3972 43.1628 13.4001 9.94346 962744 489923 1.69099e+06 15425.5 -469430 -502914 
108 1 39.825 41.353 14.1601 10.3137 277003 478934 118956 812269 -91208.1 -63551.5 
107 1 41.7628 43.2 14.1166 6.99142 874226 2.57342e+06 704112 -383207 887976 -58648 
37 1 45.2881 41.998 14.6547 8.06055 -317567 -151650 -265559 -369093 -73372 95580.7 
120 1 48.9423 42.0892 14.27 7.35383 994447 985773 791079 -134344 -236030 -176728 
121 1 34.0668 45.1935 15.1381 0 -58948.5 169138 -405194 -311350 -180137 96615 
123 1 35.9455 43.8883 14.1264 0 1.02769e+06 333429 747975 -296603 -472890 -184060 
103 1 38.71 45.4389 14.2485 10.2285 -797778 -289681 -421195 -50075.9 -149881 -90979.8 
55 1 41.0532 45.7063 14.3376 8.20567 -1.18879e+06 -381475 -1.80264e+06 189280 -662607 -183492 
111 1 43.9398 44.3318 14.5463 5.42381 -682241 -28655.9 -828866 -549436 -207861 655057 
34 1 46.9499 43.8072 14.3214 6.11388 203836 430129 456757 -293177 215466 821533 
67 1 49.2237 44.6758 13.979 9.14235 379616 1.14064e+06 655776 315970 608156 184.818 
130 1 36.8292 47.0909 13.8553 8.81899 634080 -589438 504952 -448112 -1.18229e+06 -197849 
138 1 43.1909 46.7303 14.1918 8.75643 -347725 -1.40126e+06 -567671 -559168 838985 385092 
142 1 45.6433 45.9413 14.1712 6.00131 161463 -985096 -1.03248e+06 -523156 -233408 -812466 
146 1 48.1145 46.8657 14.165 6.89506 2.22618e+06 324170 -685785 96286.3 465526 152552 
126 1 34.5567 48.1183 13.9085 0 34165 -342449 -207288 35687.9 -12074.8 51387.6 
129 1 37.6403 49.212 14.5594 10.1457 640359 295451 -393811 81653.5 -223676 -611329 
134 1 39.7857 47.8296 14.109 7.75547 -230533 -292757 -115646 -351256 276864 -468864 
133 1 41.9565 48.8311 14.0057 7.0954 -571523 -897308 253587 33784.4 395463 -253044 
137 1 44.4167 48.6777 13.7598 7.30672 411680 -605544 1.35248e+06 -380752 718017 -180073 
141 1 46.8899 49.2589 13.9842 8.05127 103306 363911 765294 -912878 606257 -114890 
69 1 49.4778 49.0575 14.151 4.77519 -527245 490252 -1.20086e+06 -690694 -525705 -437299 
78 1 46.9115 32.6188 17.5297 0 -450445 -86191.3 -207891 37250.3 -2491.05 -108844 
79 1 44.9728 34.0887 17.3669 14.3593 -251013 224188 -183731 101798 -205132 402746 
80 1 49.1735 33.3023 16.893 0 126854 486889 -454963 -180828 916475 -297858 
82 1 40.0864 36.7178 17.6331 15.8504 14020.7 -69817.5 367681 -256385 -522743 60052.7 
87 1 43.1953 35.5069 16.4124 10.4355 -309177 -175130 754949 1.13283e+06 1.40712e+06 53274.9 
95 1 47.1542 35.0467 16.758 8.77678 141119 186395 -154324 -503113 -81125.3 -380878 
101 1 37.0778 39.0021 17.6113 0 -126415 529544 194826 -85138.3 27070.9 -376962 
83 1 39.5477 39.0308 17.3635 7.13601 87076.5 15045.7 -268202 -49158.1 -63416.7 107601 
109 1 42.1222 39.2931 16.9886 6.18336 532557 407562 282659 -196234 247053 -168327 
113 1 43.8552 37.9527 15.6771 10.3641 281454 -114775 508191 45651.4 389494 -448829 
92 1 45.986 37.2931 16.5648 6.92381 -170558 234489 1.03238e+06 -181616 -371386 19387.6 
96 1 48.4636 37.154 16.7956 8.58448 86454.8 -206980 11315.3 -307074 -111845 176077 
104 1 36.313 41.3342 16.5847 0 435344 1.18331e+06 232603 -207237 89199.9 -9288.2 
177 1 38.2105 41.117 18.2188 7.5989 251800 -163874 479941 -617884 -227510 -408225 
116 1 44.402 40.3182 16.0217 9.65096 -248960 -99805.1 632697 -192199 228263 350552 
189 1 45.8237 41.0062 18.0696 3.6292 -150735 675618 579157 -40741.4 -163012 213530 
117 1 46.671 39.6053 16.1054 5.5229 -609549 -1.48581e+06 -1.88039e+06 -350377 -211223 111596 
2924 1 49.032 40.2766 16.1871 6.98685 -1.30354e+06 -1.93006e+06 -379330 -145587 -430093 -969413 
175 1 36.9231 43.3292 18.215 9.27292 -120866 263249 351351 35261 248886 11465.1 
102 1 38.4331 42.4946 15.8964 9.90066 -256299 -83498.1 1.60003e+06 148781 137193 -618440 
106 1 40.8549 42.3922 16.2457 7.5385 -140857 -425341 -596098 -639076 -21181.7 2245.84 
110 1 43.3573 42.6374 16.2089 5.60209 165015 -45570.8 75204.5 125461 20816.6 320852 
114 1 47.1621 41.9375 16.1375 5.76192 -302215 -1.66629e+06 -118867 -358255 -318206 229894 
99 1 35.0554 43.5005 16.5239 0 139967 699928 562332 -43950.6 -108809 362592 
199 1 35.4883 45.4594 18.1357 10.1245 626619 1.05745e+06 780789 48480.1 223757 183875 
127 1 37.2372 44.5162 16.0334 5.13509 -111376 693452 -86123 266673 57722.4 -185302 
203 1 38.1034 45.5112 18.1251 5.47526 416329 -170461 842704 -382961 36408 -108368 
131 1 39.7307 44.5391 16.2351 4.11407 -963002 -322397 -663009 -157563 -698957 -256165 
135 1 42.1361 44.7597 16.2425 5.45459 228758 370993 42740.9 -712462 -670581 431852 
115 1 45.5321 43.8734 16.3437 4.46109 -466890 -13172 -1.0509e+06 -399208 54975.8 -192178 
118 1 48.5526 43.7982 16.2666 3.37389 -693783 -719854 39741.4 189814 -724955 186133 
122 1 33.5149 47.483 15.9169 0 -437771 972699 -99820 -279725 78592.3 885479 
124 1 35.7904 46.544 15.9401 8.84404 -326998 356280 -97408.3 -260019 -316369 -295501 
200 1 36.7851 47.7366 17.9612 5.0723 1.00227e+06 707357 1.64305e+06 -476483 1.18841e+06 -906482 
128 1 38.2124 47.0033 15.9868 6.79905 -502398 602708 97672.5 177615 15332 -554416 
132 1 40.6931 46.919 16.3378 7.74517 305710 875263 -739223 -665885 121702 -429876 
139 1 44.2524 46.152 16.3195 5.40671 410670 617950 -811578 106465 15275.3 -198929 
143 1 47.109 45.6667 16.1852 4.40527 -966202 -449118 258884 613356 -836458 1.31923e+06 
216 1 46.828 47.6131 18.0691 1.83192 42174.3 998124 2.02778e+06 -88262.9 32780.5 1.09432e+06 
144 1 49.5295 46.2632 16.1202 1.05478 95271.3 -6140.35 -194692 273994 -217678 13284.4 
147 1 33.5459 49.8892 17.0552 0 -262372 1.50335e+06 17176.6 117397 265435 753013 
125 1 35.4805 49.1394 15.8962 5.22508 -208180 873273 1.27318e+06 -1.0329e+06 868951 -1.20824e+06 
149 1 39.3902 49.1749 16.3229 7.34104 -473525 101316 -889388 -670074 -81519 349817 
136 1 42.7426 48.0893 16.211 5.29985 -320560 133372 20739.1 -478168 7449.75 61055.6 
151 1 44.672 49.4036 16.2725 5.28613 -1.12981e+06 -889337 117341 504240 101358 -371967 
140 1 46.0238 47.7109 15.6122 10.4385 -1.17814e+06 -2.01753e+06 -203972 683313 895397 -1.00192e+06 
145 1 48.2294 48.456 16.1159 1.59761 -582095 -61386.3 96864.1 -606743 348545 20499.4 
91 1 43.4366 33.8686 19.2038 0 377346 172810 168667 -55177.9 63540 274207 
154 1 45.954 33.6216 19.538 0 411203 -164186 -466897 -14308.7 -182494 -56363.8 
156 1 48.3244 34.2574 18.8309 9.71456 193955 -880163 -1.13027e+06 354247 -139330 -429489 
77 1 41.5719 34.7717 18.0201 0 -7386.46 -333330 355453 -121330 112254 291688 
86 1 42.2318 35.7786 20.3481 0 720831 606678 1.05037e+06 -228500 -40322.4 195881 
167 1 44.7603 36.3369 18.4507 7.25216 298033 -10863.4 1.20954e+06 787711 1.29303e+06 923947 
171 1 47.1471 36.3177 18.7682 7.85274 -480364 -748363 117981 211735 80810.7 -38112 
2980 1 49.587 36.4685 18.8827 10.1685 -351099 -157870 182461 158190 -110163 232547 
158 1 38.4859 37.9148 19.2473 0 -317375 536770 811510 -414841 588993 331329 
160 1 41.0575 38.5518 19.1992 5.35267 -1.74346e+06 -2.56718e+06 -944083 -741027 143992 -172108 
163 1 42.4245 37.0387 18.1122 8.1013 -1.15959e+06 -943202 458162 640981 875230 -937426 
166 1 43.2036 38.0385 20.3133 6.29157 184213 -93136.4 250506 252276 -51774.1 -102665 
164 1 44.369 38.7253 18.0967 7.54566 1.00723e+06 399856 763187 30257 -73042.8 264467 
170 1 45.7276 37.9043 20.2732 5.74079 764675 1.18979e+06 439023 419287 349521 247256 
168 1 47.0027 38.7478 18.2819 6.78947 349212 32142.5 -861077 203912 -249486 403792 
172 1 49.4437 38.9111 18.2571 7.98795 279583 -67445.9 -97268.6 -16051 271816 -62094.2 
174 1 48.3632 38.0232 20.2634 7.42974 -59744.5 329940 -240769 42712.1 101511 -57227.6 
181 1 40.794 40.956 18.1744 8.72821 363156 -1.24579e+06 259789 7608.26 171983 333046 
159 1 39.3477 40.2114 20.2008 8.30143 1.07256e+06 1.21289e+06 1.19118e+06 180616 110010 323125 
185 1 43.2736 41.0758 18.2706 6.33718 -249755 -397102 293285 -75081.3 -345822 -86962.1 
161 1 42.038 40.2287 20.3064 6.55059 -61800.9 -823533 251535 -690333 -685653 -1.03958e+06 
165 1 44.5666 40.207 20.1905 5.76685 -165918 344624 418723 74845.4 -143708 84908.7 
169 1 47.018 40.3054 20.3253 6.23422 69794.2 392631 -11061.2 214771 101753 33186.7 
193 1 48.2535 41.1144 18.324 2.00341 -478140 -74917.2 -296834 266282 -6413.37 -132735 
173 1 49.6137 40.3756 20.5041 6.15562 140752 291880 -508070 -71435.6 298630 39283 
180 1 38.073 42.4157 20.3754 10.1213 138580 115427 -117045 -298992 277478 20409.9 
178 1 39.375 43.1945 18.2842 5.24142 -507977 -871470 -191389 -475359 398528 254395 
184 1 40.6163 42.413 20.4196 5.52207 38803.5 510802 399883 -67433.3 -170862 -23980.4 
182 1 41.8857 43.1762 18.2803 5.26658 -318201 -197796 -50811.7 -2014.58 -287350 -213666 
188 1 43.1166 42.4723 20.4448 5.70995 -89761 -389882 -485868 -166589 176936 166571 
186 1 44.4482 43.1922 18.4357 4.41338 -402556 -155871 -408227 -692649 85385.3 290654 
190 1 46.9771 43.2812 18.3165 0.568643 -368834 -543709 -23783.2 340362 -432122 -105933 
192 1 45.7643 42.4393 20.389 6.06131 -160730 124322 -87454 28602 -233750 346082 
194 1 49.5124 43.1996 18.3499 1.67725 -797647 -321308 -1.00181e+06 312660 -22689 120249 
196 1 48.2163 42.5616 20.421 5.79753 -583938 -496024 -899937 -125436 109222 -190319 
176 1 36.6661 44.6173 20.2615 10.8732 700338 829569 506130 -89612.8 250059 147813 
179 1 39.199 44.5962 20.3793 4.90893 675166 -9830.19 968090 -158550 601048 14704 
207 1 40.6012 45.3599 18.3572 6.05611 113974 -144301 150277 -341098 -732875 -86931 
211 1 43.1607 45.438 18.4589 4.40403 -104543 400011 133670 -182904 179167 108743 
183 1 41.8212 44.6518 20.5003 5.83977 459877 347780 -243995 28953.6 10791.8 92295.1 
187 1 44.4186 44.6956 20.55 6.64193 221875 218878 -422743 -138824 -103379 -71639.9 
215 1 45.6209 45.4097 18.2559 0.523354 -425200 -738605 -72797.4 43465.4 -146443 -188152 
191 1 46.9831 44.739 20.3458 6.43336 -259465 -152389 -248071 73166.9 -130773 -53851.6 
219 1 48.26 45.4432 18.2625 0.466141 -326799 92618 -463577 -3230.28 -417771 347086 
195 1 49.4385 44.7025 20.3848 5.58545 -237686 -211737 -866256 -17927.1 -20679.4 24150 
197 1 34.2771 47.7259 18.1878 0 549625 656150 -97709.1 -169375 -17761.8 219632 
202 1 35.4073 46.9299 20.2117 10.5165 290143 251574 594585 -104206 218354 430515 
206 1 37.8734 46.9033 20.3173 4.68394 -113030 327897 350793 250012 -17903 -168000 
204 1 39.2563 47.6477 18.2771 6.18874 -134542 -698785 -185932 -382850 21045.6 29790.6 
210 1 40.3389 46.8221 20.4485 5.09728 673060 341917 -316972 62290.5 244942 -149890 
208 1 41.8821 47.6071 18.4785 5.07625 80795.3 273601 -149536 -4753.53 -115755 37225.8 
214 1 43.1131 46.9777 20.5253 6.18867 442766 -172887 113059 111326 -281392 -107752 
212 1 44.38 47.6627 18.1893 2.95651 -309172 -386108 335081 84577.4 -359771 -435811 
218 1 45.5975 46.918 20.3431 5.75151 223753 76522.5 498243 117848 -49178.2 -57396.9 
220 1 49.419 47.6933 18.105 0.41084 301667 -75918.8 -21488.5 177855 -33672 -48977.5 
222 1 48.1963 47.0289 20.2703 5.79336 337807 -207871 475086 111601 63414.7 -178744 
198 1 34.3935 49.2034 20.2525 14.9167 -386228 198175 288038 257873 112177 281337 
201 1 36.7855 49.0562 20.3341 5.31698 -1.12317e+06 -435882 22440.2 152550 -189942 365648 
380 1 48.2444 49.9171 26.6083 5.91802 385830 709912 -142043 -162131 85906.8 -20814.3 
224 1 38.1439 49.9436 18.4054 2.6978 -1.11875e+06 -98955.1 -1.12943e+06 572958 -325067 472757 
205 1 39.2548 49.1472 20.5304 6.52063 -556442 258163 -1.08926e+06 -157819 124349 108476 
225 1 40.5814 49.7553 18.4162 3.91552 -1.38126e+06 -510301 -766913 -395976 -78036.3 -93352.3 
226 1 43.0298 49.8607 18.2114 4.58872 -757193 -907877 501839 606370 -399996 -260930 
209 1 41.798 49.1194 20.5341 5.98487 -177478 -183015 -2967.71 375539 -436038 -127626 
213 1 44.3304 49.0621 20.3603 5.93404 -115491 -435668 408700 -357828 133920 32771.7 
300 1 37.991 49.9564 22.4176 5.3198 -247968 509421 -561421 -318154 266110 -109498 
217 1 46.9574 49.1054 20.3659 5.84939 -315477 -165351 121520 497233 -128505 332273 
228 1 48.1583 49.8616 18.2233 0.135737 99653.8 -44581.6 -102428 147449 90418.6 44179.4 
221 1 49.4907 49.1965 20.3232 5.59278 109260 -11013.6 134283 -38098.7 -17121.5 147388 
230 1 48.4375 34.3282 23.0136 0 443994 -247307 265129 -153882 -235754 117748 
239 1 43.4469 36.5441 22.3852 12.7642 120091 66495.9 316206 35063.2 293884 -223740 
153 1 44.7336 35.4928 20.6163 11.1993 433550 272940 -358568 279638 225835 17620.1 
155 1 47.1987 35.1048 20.9905 10.6717 62859 -290200 261424 -342746 -70279 -700892 
243 1 45.9853 36.6612 22.412 7.42593 -214222 -430093 219777 -114802 13883.2 -318569 
157 1 49.7236 34.9907 20.7534 8.02209 485628 486809 268509 -508695 -844918 446121 
247 1 48.4402 36.6537 22.4044 8.78132 -769479 -765707 728794 -562577 -850516 48057.5 
162 1 40.3884 37.3292 20.907 15.1083 914405 -109801 -237917 -571122 806300 401769 
234 1 39.4075 38.8872 22.4052 0 -220991 -392212 626044 45513.6 148932 -286636 
236 1 41.896 38.5394 22.3592 9.06951 294772 679101 543080 90132.8 -57168.8 -355120 
240 1 44.5676 38.8236 22.3923 5.67577 15567.1 95254.2 496631 191104 -29836.1 -34134.8 
244 1 47.0638 38.8459 22.3765 5.78523 -157612 -423980 363714 -97910.8 108640 193209 
248 1 49.5733 38.7901 22.5096 6.37657 -343211 -590171 -217685 -163091 -6457.43 69338.9 
253 1 38.3162 41.1003 22.4566 0 -316324 50088.7 378651 -374420 -129884 231047 
257 1 40.7655 40.9053 22.4755 5.04327 -267504 292442 600779 -132079 -72681.4 619701 
261 1 43.2488 40.9254 22.3638 5.85371 -128843 20106.1 17930 -82911.8 -218362 163558 
265 1 45.7714 41.0819 22.4381 5.55466 31140.3 79749.6 -69428.6 85258.2 32551.2 118157 
269 1 48.3098 41.0635 22.498 6.28595 -28683 228402 -420398 -50384.1 350340 68621.9 
251 1 37.0063 43.3806 22.3751 0 -50143.8 643500 143992 -755012 10389 146321 
254 1 39.4724 43.2112 22.5554 4.66034 -671009 58584 733.075 -178523 27928.6 38761.5 
258 1 41.9384 43.1661 22.5335 5.56286 -332073 213108 566240 292759 -541326 -88010 
262 1 44.4354 43.2231 22.5718 6.58174 151544 151488 184947 105959 -167699 157392 
266 1 47.0419 43.3147 22.4326 5.43911 317648 60477.4 -354439 -2874.46 190957 -275760 
270 1 49.6235 43.3102 22.3369 6.09249 7733.65 -296888 -246728 277955 -181424 -139054 
275 1 35.6025 45.6164 22.3702 0 510196 561908 814934 -634693 59200.1 -164916 
279 1 38.1504 45.5183 22.4432 4.65734 -110235 -1.0846e+06 95775.7 -482447 422938 -39127.4 
283 1 40.6698 45.4494 22.5554 5.18882 -423610 -279567 252110 218573 691046 274229 
287 1 43.1108 45.4455 22.5539 6.41644 -458568 -125094 -472620 -5185.12 182782 -261726 
291 1 45.6831 45.4717 22.5159 6.05682 24904.1 -637148 -129012 37956.9 -265399 -261431 
295 1 48.3432 45.4826 22.3952 5.58219 190622 -179198 -313825 106778 115058 -307655 
276 1 36.8088 47.6958 22.4446 5.07941 -274061 -521856 -249654 136013 648007 570143 
280 1 39.2855 47.5895 22.4557 6.27424 29925.7 -168532 -112358 -581112 -29492.3 -271000 
284 1 41.8217 47.6718 22.5094 6.18518 -57108.3 -510353 -368056 -86933.1 140804 178326 
288 1 44.4786 47.5953 22.6168 5.53282 -658960 -816413 -427357 132114 35789.8 -299617 
292 1 46.8905 47.615 22.4652 5.8659 -476967 -396554 381903 6327.22 -42669.7 130936 
296 1 49.539 47.6974 22.3382 6.10843 -264710 -368415 147698 -45364.2 45934 -2569.91 
273 1 34.3042 47.9172 22.3601 0 306696 314599 603971 -301281 -59511.1 93763 
304 1 48.2228 49.8185 22.4681 5.77162 -149879 -52144.4 -277122 42429 -10344 128222 
301 1 40.5311 49.8878 22.5586 6.40813 -134469 -195639 -721506 19601.3 115389 -97427.4 
302 1 43.1404 49.7918 22.6082 5.92666 -314312 -595435 -563538 -246817 -28865.6 -3201.31 
303 1 45.6314 49.7695 22.418 6.17103 -137449 -457191 -113054 144158 119407 125726 
379 1 45.6643 49.8314 26.6904 6.11698 -513386 -122184 -209753 223185 8611.81 178936 
229 1 44.6741 36.0075 24.5563 0 -60800.6 -305950 372173 -58969.1 26379.1 -113091 
231 1 47.0831 35.7746 24.5972 9.32964 178844 312369 766430 137587 -161053 -270728 
233 1 49.7094 35.7467 24.5352 5.52057 -20335.8 490004 141181 -40720.5 -30248 -49134.3 
238 1 40.5268 38.1753 24.5663 18.7716 723157 -70120.3 821417 -193996 9024.24 53936.5 
242 1 43.1793 38.0064 24.4648 7.33082 361506 479425 97665.2 230017 -241714 -39743.4 
246 1 45.8108 38.1186 24.5538 5.83108 -183722 -622907 -164076 -393729 18446.5 -85316.6 
250 1 48.3071 37.9068 24.5723 5.14194 119795 412738 157001 -89639.3 33417.5 151242 
235 1 39.2004 40.2591 24.6303 10.1139 4462.55 390775 366122 92321.6 200773 -85987.8 
237 1 41.8622 40.1972 24.4429 6.06789 33213.3 29716.5 766163 -33745.2 522447 496342 
241 1 44.4165 40.273 24.5915 5.66124 294473 109339 186488 140743 30342.5 190.979 
245 1 47.1011 40.2175 24.4863 5.76261 319644 74466.3 152262 -410560 188929 208158 
249 1 49.628 40.2556 24.5923 5.73699 -3602.99 52953.1 -207281 29887.1 77344.2 323823 
256 1 37.8083 42.416 24.5893 12.3659 564308 610507 318351 -17551.8 -16072.6 177605 
260 1 40.4139 42.3721 24.6816 4.59124 1.01448e+06 529685 449705 344107 -512469 124589 
264 1 43.0745 42.3657 24.6632 5.33996 850638 144102 36756.2 95433.2 62274.2 -74528.7 
268 1 45.7188 42.4001 24.5892 5.83506 702698 483043 235130 -95059 -147490 99028.3 
272 1 48.3188 42.4844 24.6088 6.24684 425646 -210426 667556 -13390 -173103 -249988 
252 1 36.4901 44.6075 24.6306 13.3326 656712 466370 694773 -23646.1 127618 -186736 
255 1 39.1032 44.6071 24.5712 4.5121 1.19087e+06 435951 701424 596312 792869 92547.4 
259 1 41.7839 44.6423 24.7005 5.52117 694696 90449.6 -269137 138596 22382.9 318146 
263 1 44.4233 44.6592 24.6884 6.44187 736378 414664 229707 -87640.3 -76316 -79743.2 
267 1 47.0705 44.6329 24.5451 6.13745 54834.9 30062.3 325962 206550 -116912 -219560 
271 1 49.538 44.6597 24.4731 5.51206 -546637 -157365 45253.1 -172549 -16030 -32325.4 
278 1 35.3573 46.8319 24.508 11.5392 196369 265610 175742 -239964 317524 138937 
282 1 37.87 46.7643 24.5663 4.43394 1.02998e+06 395499 368958 1.20128e+06 -103396 -89218 
286 1 40.5614 46.8157 24.6383 5.45468 568977 397061 -271763 189968 175658 -94462.5 
290 1 43.0229 46.7893 24.5837 5.36209 -106129 -26804.5 -3828.64 -180743 -10123.8 -69394.2 
294 1 45.6859 46.7722 24.6645 5.73648 162041 351496 -417340 161774 -272757 -145952 
298 1 48.2238 46.9172 24.4977 6.09473 304395 179949 180366 -10170.1 -18394.3 -92445.4 
274 1 34.4254 49.1793 24.5353 0 -680857 316462 -78105.6 88046.3 -252263 -319873 
277 1 36.7892 49.0181 24.5505 5.48575 -717892 -5316.23 657155 175878 -179140 -172686 
281 1 39.2982 49.1119 24.5533 5.88524 -18858.4 1.27866e+06 -128689 386526 263583 59559.7 
285 1 41.8687 49.0949 24.6095 6.29514 -188752 205512 -202417 -119218 94369 30249.9 
289 1 44.3649 48.9502 24.5835 5.12201 251445 124044 -716892 313448 -72130.9 -145099 
293 1 46.9859 49.1709 24.5732 5.7255 228325 414415 -233908 284306 -37707.8 146277 
297 1 49.4891 49.1279 24.5474 6.06288 -102412 232292 -10816.2 195310 59809.4 141466 
306 1 47.0419 34.3547 26.5619 0 458694 328082 628603 -198047 83967.2 248688 
308 1 49.4644 34.4393 26.6078 0 1.00426e+06 290338 807754 315963 50681.3 -5092.25 
315 1 43.4255 36.6601 26.5904 0 -220855 -423584 284111 -404589 59872.7 -68162.8 
319 1 45.9227 36.6081 26.6769 7.58546 -34497 -124756 -448019 78961.3 359335 -153592 
323 1 48.4808 36.6392 26.6901 5.27753 200011 -405475 -65068.9 -45214.4 -62743.8 -112695 
310 1 39.4801 38.8707 26.813 0 3731.05 158081 -67316.7 52066.6 -58725.4 -400356 
312 1 41.9477 38.6948 26.6337 7.44205 91938.6 587437 393388 326248 -44845 -148811 
316 1 44.5552 38.721 26.6167 5.84291 -829921 -1.00501e+06 -65528.1 -249683 119183 -98125.7 
320 1 47.0154 38.845 26.6603 5.52581 -483546 53497.7 -55656.9 146261 -217469 306987 
324 1 49.6288 38.9293 26.597 5.26693 -133480 -302088 -678817 183381 67106.4 421532 
329 1 38.3327 41.2281 26.6849 0 -247516 -312437 -367876 -235256 173546 -109348 
333 1 40.8259 40.9965 26.6624 4.47171 -425687 -441487 -46514 303279 162240 346697 
337 1 43.2712 40.9101 26.7324 5.18107 -670269 -496611 684183 565834 746581 339306 
341 1 45.7366 41.0033 26.6816 6.11793 -166995 -201444 463288 -177496 97272.3 101879 
345 1 48.3223 41.0835 26.7509 5.91787 285170 -355979 -125880 319492 67322.8 -219678 
327 1 37.0114 43.3865 26.7703 0 122996 -288792 -246839 -135185 57355.3 -227780 
330 1 39.574 43.253 26.7562 4.68062 -568016 -605060 26902.7 -615969 -128220 -573414 
334 1 41.979 43.2011 26.6659 5.303 -906809 -335177 -174151 302870 -130415 195913 
338 1 44.4362 43.164 26.7825 6.61989 -562774 -411979 -307763 -155269 95187.6 102514 
342 1 47.0032 43.1723 26.7451 6.26834 -3069.52 -102254 20603 280054 -211122 -76473.9 
346 1 49.6331 43.2455 26.6627 6.14264 -67647.4 -82841.3 -51053.5 242611 57124.7 -40750.6 
351 1 35.7491 45.6281 26.7224 0 -626507 -436669 -297968 -342076 69406.3 -352204 
355 1 38.153 45.5231 26.6863 4.6013 -1.19365e+06 -608283 -407700 -619764 -165064 -458375 
359 1 40.5954 45.4602 26.7122 5.42047 -725945 -418396 40385 -17597.6 757839 463802 
363 1 43.1245 45.4353 26.77 6.1853 -175232 26561.3 -328455 -78845.4 -97479.3 38715.8 
367 1 45.6575 45.3386 26.7807 6.16939 279167 163514 -441213 -142176 -108898 11749 
371 1 48.3104 45.4415 26.6223 6.06239 581624 436921 150890 73225 -156202 -116144 
349 1 34.417 47.7948 26.6876 0 -134962 -282109 625332 -234729 -56863 31964.1 
352 1 36.91 47.7071 26.7065 4.70239 -814154 -318776 22255.6 -416443 -269125 -36245.8 
356 1 39.3376 47.6783 26.633 6.08095 -673791 -910446 1.02616e+06 98459.6 -29353.4 -36402.4 
360 1 41.8299 47.7289 26.7983 5.67502 -71664.9 228471 -200465 -151224 -14351.9 -211023 
364 1 44.3701 47.6451 26.713 5.96158 305591 -278850 -569011 -81785 37032 -152972 
368 1 46.9737 47.6823 26.5841 6.18731 419080 82834 -553753 127895 -262204 -85781.9 
372 1 49.6061 47.6551 26.6539 5.69554 198205 67406 -412125 197593 124877 163975 
378 1 43.1796 49.8996 26.6497 5.40338 -169429 -330664 -380915 -60865.6 -194549 98909.6 
376 1 38.0804 49.9353 26.6165 5.5086 -435382 -298170 -118393 257380 -17676.4 170502 
227 1 45.6702 49.8279 18.366 3.31693 -316385 -99011.7 -803638 -198257 -451869 -223775 
377 1 40.4503 49.8991 26.6731 5.73033 -402258 -119792 -353727 -145271 -4891.82 125819 
305 1 44.6943 36.0412 28.6871 0 380456 -658574 154176 -482566 89192.4 72766 
307 1 47.3551 35.6711 28.7814 6.53119 638289 886290 1.21147e+06 99529.1 118177 34471.1 
309 1 49.7869 35.8316 28.7237 7.16499 -143630 364500 1.17416e+06 248533 -19148.3 -66109.8 
314 1 40.6895 38.14 28.8328 0 49890.7 -628582 336624 -19007.8 -258390 31742.5 
318 1 43.2324 38.0035 28.7491 7.29527 -399611 399235 -143494 192882 56545.6 -253365 
322 1 45.8418 38.0485 28.7659 5.95735 -777564 -482440 -233802 -553198 41303.5 -207123 
326 1 48.3215 38.1683 28.6189 6.59865 -464373 379874 -287259 84629 -108884 -100108 
311 1 39.3103 40.1838 28.7668 10.8688 94886.7 -96908.2 -661691 138691 19640.4 -44532.5 
313 1 41.8575 40.2288 28.8554 5.22725 145970 -927420 168009 -69271.2 -93532.6 33921 
317 1 44.4631 40.1391 28.7697 5.31188 927471 4443.74 224176 171001 482113 961951 
321 1 47.1073 40.3539 28.9101 6.45757 459647 -238538 7082.56 -266482 -1253.04 -10873.7 
325 1 49.8008 40.3544 28.73 5.50204 -156534 -355852 -465276 -47059.8 162176 195500 
332 1 38.0079 42.4115 28.8614 11.924 753056 141135 314217 150973 1333.99 -17197.2 