ITEM: TIMESTEP
100000
ITEM: NUMBER OF ATOMS
5538
ITEM: BOX BOUNDS pp pp pp
0.102528 99.8975
0.375086 99.6249
-1.7387 101.739
ITEM: ATOMS id type x y z c_csym c_2[1] c_2[2] c_2[3] c_2[4] c_2[5] c_2[6] 
4 1 49.0395 37.2383 7.66761 0 -374082 176447 -354342 292396 -335456 320168 
47 1 39.0617 44.7496 7.8392 0 68406.2 216112 293775 -26309.2 183267 157959 
60 1 44.4379 48.1284 8.0421 0 -90368.8 -66279.7 277477 -107717 277428 -49003.5 
5 1 48.5165 36.3278 9.93454 0 -481454 291865 -18322.9 -225974 543069 72466.9 
15 1 45.1728 39.1505 9.87432 11.7684 85659.8 806859 216801 26461.9 -713790 -355956 
2 1 47.4024 38.4488 9.02279 15.3938 305299 40599.5 -374830 -146717 -100140 -308557 
76 1 48.4604 48.5107 12.2089 9.10473 -637982 -1.74192e+06 -2.05034e+06 531891 -170613 346796 
6 1 42.1744 39.9321 8.86155 0 380091 425572 -47226.8 -283797 195709 88216.3 
10 1 44.4291 40.5854 8.10293 0 487274 509824 428650 -117298 -213693 312104 
1 1 46.804 40.8671 8.82862 15.3535 264446 439022 -156900 262038 -185093 137327 
25 1 38.1258 42.864 8.81596 0 451034 273059 -181971 -412713 -109156 -14931.5 
7 1 40.2411 41.6521 9.03679 0 1.12207e+06 2328.69 1.0342e+06 -401367 -373840 316008 
9 1 42.725 42.3214 9.17121 13.466 764806 264641 -106910 -846625 -659269 -103995 
11 1 45.2261 42.8865 8.75037 0 284207 565626 32599.3 126491 451594 109450 
14 1 47.3936 42.9339 10.0609 7.79235 -41678.8 -410647 -104260 500655 -180074 -86577.8 
2854 1 49.2003 41.5667 9.26184 0 824803 -89969.6 -232538 497243 712428 265467 
24 1 36.5442 44.4817 9.8186 0 271254 150876 112413 -103681 33919.9 168637 
32 1 40.7423 43.963 9.40438 9.90774 183231 252241 -659039 -719813 -330913 116735 
35 1 43.8189 44.0208 10.399 7.89281 159977 -311887 -836468 -841695 -140688 -287871 
39 1 46.1397 44.9865 9.90709 9.50986 221037 523275 456773 337183 207732 -159051 
2853 1 49.4508 44.0465 9.34334 16.7431 586558 656697 43940.5 248785 -48365.6 120660 
48 1 35.9366 46.7611 10.6363 0 -263334 -349575 -189087 31248.5 -201949 133643 
50 1 37.4869 46.3346 8.72023 0 -335801 -126905 -296083 -56665.2 -187391 -95695.5 
23 1 39.5478 46.2238 9.87 9.56503 -315456 1.22424e+06 135957 300600 -179082 210096 
31 1 41.8941 45.7685 10.3705 10.2795 -11972.8 70487 -557319 -527456 -710948 -90214.7 
63 1 44.1357 46.3697 9.80562 8.82284 -976722 -758067 -60255.6 651085 64690.1 244047 
66 1 46.2985 47.6394 9.7232 11.1199 562733 998460 78199.4 -177000 1270.46 133543 
43 1 48.3173 46.1893 9.83704 12.7327 658958 702352 367755 -76467.2 -327518 -413571 
45 1 37.911 48.117 10.2809 11.9577 -1.01897e+06 -778785 -808037 -273702 114671 -656954 
52 1 40.4406 48.5508 10.3968 8.24493 -608496 912039 669527 778854 39698.3 -3564.44 
62 1 42.4379 47.8957 9.30236 15.9807 -1.28554e+06 -359140 351445 602914 287735 169761 
61 1 44.6658 49.6395 9.88999 12.8837 405706 195593 772137 -392682 -275396 384568 
2876 1 49.6511 48.2233 10.1009 0 -269703 791413 88616.1 -172732 263054 116466 
19 1 45.5762 35.8029 12.6771 0 233505 -60129 669665 14409 68222.9 -6374.32 
22 1 47.9792 35.7718 12.2371 17.0313 195853 -562099 -471999 -147149 -24048 -56732.8 
18 1 44.3946 37.8682 12.0913 13.2758 251569 177645 902824 486134 -98020.9 -256779 
3 1 46.3144 37.1024 10.692 17.9438 30280 22266.6 105679 -167014 113771 -55979.9 
21 1 47.5764 38.131 12.3967 5.52609 511533 -190366 511592 -631888 269313 -1.15464e+06 
2837 1 49.7564 38.0191 11.2975 4.92156 94907 972457 -1.65483e+06 264597 -227259 80517.5 
29 1 40.6526 39.9761 10.7129 0 -627558 -834004 -860111 335736 148709 -52847.5 
8 1 43.0437 39.6771 11.1248 9.52699 -189828 14086.4 742634 716977 94587.3 -258497 
12 1 41.7697 41.0495 12.5484 8.56136 33699.2 -176223 -1.0934e+06 288606 -113984 -109525 
13 1 46.0106 39.9535 11.8908 5.76 65484.9 188188 -1.01719e+06 -177632 -282099 -128549 
16 1 48.0307 39.9636 10.6712 5.65001 -166574 -250463 -692402 -115484 -391153 142801 
41 1 49.1444 39.9559 12.9013 5.97239 -822930 -1.05922e+06 -797113 -337792 -72110.4 364570 
26 1 39.6224 41.9504 11.5489 12.6128 -328955 -788698 1.69701e+06 439562 -697127 282989 
30 1 41.6939 43.0667 11.334 8.17596 -97299.1 -827192 -431285 219096 -451184 356499 
33 1 44.5074 41.5849 10.6897 8.57741 194949 1.02664e+06 92183.8 148492 373696 233985 
36 1 43.7579 42.5513 12.6609 7.24634 622129 980580 -945791 194887 -233630 -55804.3 
40 1 46.3559 42.3623 12.2386 6.91137 756788 -608952 478995 -181232 216380 279412 
44 1 48.7714 42.1277 11.8369 10.5008 3810.68 -234694 -1.11522e+06 -39608.8 -256599 491801 
28 1 38.8202 44.0046 10.7645 7.42608 -418282 8126.9 -646266 67179.6 -665343 -331227 
51 1 37.1662 45.3444 12.0573 8.48331 -197385 142314 -144157 637858 1140.53 164252 
27 1 40.3452 44.7503 12.3196 7.31823 62361.8 629810 -953375 -291994 -991180 -1.37166e+06 
59 1 42.9293 45.2061 12.3883 6.5312 -192267 -238765 -1.56571e+06 361732 -300823 99642.7 
64 1 45.4349 44.5197 12.1815 5.25777 -1660.25 -113162 160045 8574.08 -39535.4 -521768 
38 1 47.8202 44.4687 11.913 4.18273 -1.26031e+06 -487929 961679 -214484 681196 -658781 
49 1 34.978 46.1254 12.8093 0 -270811 -198096 305745 56282.7 -34419.6 -284739 
54 1 39.0557 47.0624 12.106 10.2697 420835 695687 -450719 -136131 -433111 126255 
58 1 41.4495 47.2097 12.2631 8.52483 -182648 194714 341081 134166 304121 6732.55 
75 1 44.4908 47.0491 11.9807 6.88885 -156754 953251 -23766.2 896266 104578 -25205.7 
70 1 46.859 46.7113 11.8921 5.49414 -544339 -330197 397421 72755.7 339759 -27716.1 
68 1 49.4722 46.4138 11.9353 5.46856 -808012 -860648 444807 613609 193182 -321444 
71 1 36.3634 48.7449 11.946 10.4996 252006 -128878 -413065 471622 185111 -447417 
53 1 38.797 49.4934 12.322 5.8392 934225 911058 -382111 -212316 -439246 -982465 
56 1 43.0467 48.831 11.5409 9.2996 -86358.5 -130633 1.14067e+06 34796 221232 393878 
65 1 46.1261 49.1616 11.743 9.35849 338924 1.09359e+06 205847 826062 -419642 13505.3 
2851 1 49.9491 39.1107 9.20424 9.92557 719809 -245840 -661309 -110728 197191 168603 
90 1 43.5098 36.4741 13.9322 0 78849.8 -375996 -299265 -37333.1 -27379.7 -164789 
94 1 45.2973 35.3061 15.1892 15.6741 -527333 -92806.7 215422 -136371 122316 155331 
98 1 47.2698 36.4808 14.4687 5.29429 519400 -4540.89 1.82387e+06 353908 352263 -768469 
81 1 49.2139 35.3123 15.4463 10.9097 -926631 -233721 -347866 489564 137354 -509044 
20 1 49.7123 36.9458 13.525 8.38027 1.87292e+06 -58280 -190329 764443 -150350 -978770 
88 1 42.4464 38.6355 13.5193 10.3162 75162.3 -2262.05 613599 -331717 -17634.2 -274169 
84 1 41.5105 37.3001 15.4496 0 -766204 575629 -196298 48856.3 34653.9 171473 
93 1 45.8259 38.4155 14.0644 5.35673 635653 266925 843269 -288178 204147 -356731 
97 1 48.5048 38.6135 14.6864 8.74463 182253 -1.13039e+06 -892366 -278369 453669 -375203 
105 1 38.1665 40.3507 15.2005 0 -516566 -270677 -271510 90755.1 251696 -3896.36 
85 1 40.2696 39.2817 14.614 16.1655 45059.2 386586 -272136 280879 172155 -50925.9 
112 1 42.2084 40.8605 14.9069 8.70011 -326644 702439 -401878 493646 -280683 -28318.5 
89 1 44.1936 40.2096 13.4673 8.25328 211934 430055 689411 -804115 333586 33794.2 
17 1 47.1017 40.611 13.9225 8.4544 30721.3 415386 -1.35004e+06 -34266.8 224034 152070 
100 1 38.3151 43.434 13.2391 11.3757 808557 368294 1.34165e+06 -34497 -403470 -327389 
108 1 39.8256 41.6235 14.0409 9.88831 39807.3 388491 400675 -15720.3 -92694.7 236893 
107 1 41.7878 43.324 13.992 7.59462 828227 972885 244214 -98114.6 844444 3793.29 
37 1 45.2948 42.2421 14.4696 7.78344 -324609 14653.4 -388908 -260356 -252939 100570 
120 1 49.0181 42.1863 14.1936 6.78087 1.03505e+06 1.09277e+06 257814 -108342 -170872 -59306.3 
121 1 34.1713 45.3691 15.0287 0 -169457 897318 426937 -261520 -300579 245814 
123 1 35.9627 44.1229 13.8649 0 677158 170457 808508 -39909.5 -120611 -10942.7 
103 1 38.7925 45.5903 14.1213 9.7317 -988108 -180126 -812632 8885.05 224763 207235 
111 1 44.0478 44.4479 14.4127 5.22406 -56610.3 -174078 -144195 20620.3 -433267 326831 
34 1 47.0294 43.943 14.2122 5.48358 158715 884529 1.00182e+06 -652078 334512 88202.4 
67 1 49.3747 44.7279 14.0393 8.96562 215308 1.60411e+06 295688 580852 606013 -53793.3 
130 1 36.9702 47.2642 13.6755 8.94768 -13026 -173097 661930 132428 -464090 40832.2 
55 1 41.1664 45.7702 14.2532 7.85521 -792620 -167525 -1.84676e+06 98554.6 -619053 -406710 
138 1 43.2975 46.9075 14.1583 8.89816 174955 -319470 -492569 -48878.7 -60952.9 146641 
142 1 45.8025 46.0783 14.013 6.07153 800972 -962852 -328370 -490854 -693182 -791407 
146 1 48.2293 46.9921 14.1563 7.04881 2.10914e+06 579757 -140282 275926 284223 503677 
126 1 34.7853 48.2539 13.8946 11.6537 -111830 -1.04759e+06 227136 -5825.11 -420161 176304 
129 1 37.7823 49.3478 14.5295 9.41001 -81670.3 35112.6 -448686 409915 -811261 -197616 
134 1 39.966 47.9822 14.1701 8.12711 -89438.1 -168340 -11542.5 -350890 425830 -839368 
133 1 42.0952 49.0608 13.8974 7.98273 -425221 -899231 1.17385e+06 -23508.6 -56387.7 374488 
137 1 44.5824 48.9403 13.7091 8.59845 370104 -704605 1.00338e+06 -165090 652373 -1329.18 
141 1 47.059 49.3527 13.998 8.22522 -332745 -197600 -467740 -679925 -115824 165980 
69 1 49.5764 49.2892 14.1184 4.70277 -875155 379000 -785317 -505135 -612680 -165975 
79 1 44.8682 34.3072 17.4213 12.851 480661 -290804 219304 6090.83 -141266 -204206 
78 1 46.8249 32.7237 17.4448 0 185876 225515 30824.9 3888.64 -18344 80092.3 
80 1 49.1624 33.408 16.8773 0 276169 85867.9 65806.5 143943 335009 43463.4 
87 1 43.2146 35.9211 16.3701 11.6447 86793.8 -3221.85 -244222 438383 -71369 -451184 
77 1 41.5823 35.02 18.1261 0 416417 183587 623733 -147024 -195758 -226912 
95 1 47.1927 35.1136 16.7569 8.14923 -416538 500651 895060 -155643 73496.7 -96182 
101 1 37.3158 39.1929 17.2671 0 -311011 -161475 291911 -297730 332035 -336628 
82 1 40.2175 37.0593 17.3772 15.389 471836 629555 -16713 -707054 -197610 -171516 
113 1 43.9341 38.1638 15.6078 8.836 -994906 -490540 55818.4 -103271 208478 -175066 
92 1 45.9493 37.3379 16.4642 8.34503 -351914 -52520.6 414605 -343341 -21296.8 -46618.3 
96 1 48.5478 37.202 16.7148 8.44311 918209 -488670 1.16039e+06 178209 361578 130233 
104 1 36.2969 41.3093 16.4945 0 402572 865993 199979 36567.4 199884 51496.3 
83 1 39.6731 39.3836 16.8737 8.91391 -492180 63310.7 -223804 -11079 -186987 -365190 
109 1 42.1741 39.3361 16.7886 6.36979 237426 963890 260416 392224 146882 117653 
116 1 44.4023 40.4809 15.9087 9.66974 203004 -200630 559233 54119.9 -143833 -9707.9 
117 1 46.6465 39.6312 15.9596 7.96853 -161819 -1.15598e+06 -1.65676e+06 -516783 -32695.6 660185 
2924 1 49.0018 40.4105 16.1849 8.11781 -848160 -961641 -189480 530107 -214303 -702207 
102 1 38.2913 42.7428 15.7804 8.2512 463158 -59980.7 1.88929e+06 -64699.9 -154646 -495216 
106 1 40.843 42.5131 16.0649 6.11105 395887 -655495 -439183 -686565 234991 49465.6 
110 1 43.3532 42.7402 16.1126 6.4368 417952 -329153 621454 246889 82441 -251228 
114 1 47.1895 41.9765 16.0743 5.48611 -333627 -729426 305328 -172643 -297055 -543643 
99 1 35.2316 43.623 16.2976 0 -124464 1.04464e+06 741453 79283.3 -20188.4 505757 
127 1 37.2735 44.8961 15.7975 6.7723 -537393 -322432 474670 43577.5 283550 -106072 
203 1 38.1273 45.6015 18.0232 5.86186 19672.4 -113968 311602 -98020.4 126467 -188398 
131 1 39.7533 44.6897 16.1442 4.47654 -457135 -447438 -800196 -53678.4 -497567 19119.8 
135 1 42.2311 44.8194 16.1926 5.45771 428160 -403262 -94264.8 -298315 -134273 506301 
115 1 45.5718 43.9632 16.2917 4.44408 -273542 138540 -926428 -290659 15544.9 -138174 
118 1 48.6483 43.864 16.2217 3.41183 -345703 -511047 -674388 -127279 -192034 215892 
122 1 33.5608 47.6995 15.9301 0 -133117 837821 261826 85268.7 -155460 211671 
124 1 35.8132 46.8882 15.9093 9.04439 -943044 -265704 133561 144570 -713187 -285687 
200 1 36.8159 47.9188 17.8897 5.56723 -294786 -123367 1.56996e+06 -292751 544678 150160 
128 1 38.2294 47.1743 15.9585 5.90356 -583701 -676935 513383 -341278 104296 -261028 
132 1 40.752 47.0054 16.326 7.63037 189649 280538 -1.23431e+06 -521662 56.5578 73790.5 
139 1 44.3241 46.196 16.1983 5.38505 661038 607978 480993 -190547 -562589 1969.3 
143 1 47.1445 45.7883 16.132 3.77303 -604557 -90453.9 93758.2 333557 -421011 921926 
144 1 49.593 46.352 16.0784 0.651947 -279433 -225799 -257146 168247 -383611 139264 
147 1 33.5242 49.8698 16.9728 0 -351306 152356 -285700 303246 -50810.7 446065 
125 1 35.6766 49.3284 16.0213 5.9442 609703 383331 138048 -33473.1 298230 -379128 
149 1 39.471 49.2727 16.2525 6.8572 -711221 -237855 -487669 -559205 -331759 78233.4 
136 1 42.7861 48.219 16.1702 5.8081 -39762.7 355210 137890 -484503 258315 46691.9 
151 1 44.727 49.5276 16.1837 5.31777 -1.11474e+06 -1.24528e+06 -500049 768487 59626.8 -903213 
140 1 46.0426 47.8147 15.523 9.99654 -1.02492e+06 -2.00263e+06 758178 415963 1.18929e+06 -1.09884e+06 
145 1 48.2447 48.5194 16.1821 1.65233 -554483 -349003 -820398 -237156 -337500 143455 
91 1 43.3529 33.956 19.3143 0 472959 85426.5 250745 -107055 -177593 49385.9 
154 1 45.8936 33.5863 19.5519 0 549242 -71178.1 6408.99 17905.7 81349.8 -85426.1 
156 1 48.2679 34.2042 19.0029 11.5316 560433 265647 -735437 574424 187435 -437414 
86 1 42.3627 36.0837 20.3011 13.2965 251824 377568 312551 -106339 -73442.1 41230.8 
167 1 44.8089 36.45 18.2805 8.63026 486974 -1.05379e+06 -279196 -35226.2 653765 249795 
171 1 47.2592 36.4305 18.9066 8.8096 89829.9 -93034.4 793968 14338.7 90765.4 143769 
2980 1 49.6679 36.465 18.8331 10.4429 -352264 875777 472028 98820.9 -203934 -88346 
158 1 38.6881 38.1859 19.1547 0 155763 819783 1.34782e+06 -408601 378506 44417.4 
160 1 40.9767 38.9096 19.082 6.79817 -940191 -1.89931e+06 -1.16978e+06 -552683 -105639 -506444 
163 1 42.4945 37.3088 18.1267 9.10778 -144513 -373439 -600419 -29759.6 291444 -638311 
166 1 43.1602 38.3922 20.2339 8.64003 429149 -560191 -43515.9 5595.45 103594 -171281 
164 1 44.4952 38.8361 17.9952 8.37581 109425 -290698 1.12279e+06 -137724 -207668 359856 
170 1 45.6741 37.9574 20.2316 6.38098 1.25848e+06 905912 1.40168e+06 352256 979753 678649 
168 1 46.9424 38.7818 18.174 6.57478 725923 916127 -642626 329168 -137536 276614 
172 1 49.5339 38.9898 18.2322 8.27179 637440 259623 -194459 28181.3 175916 -464711 
174 1 48.3293 38.1036 20.3872 7.55179 -49534.9 -61605.6 -26048.1 -173210 -100307 -148266 
177 1 38.4184 41.1563 18.0833 8.85631 -244993 -535338 457304 -285931 141128 -570188 
181 1 40.8508 41.1375 18.023 8.16604 110582 -1.07671e+06 2.07301e+06 -431582 -67566.6 -292404 
159 1 39.392 40.4134 20.2322 9.48925 806395 728737 716248 637574 -583208 -322463 
185 1 43.3275 41.0722 18.2408 7.74325 -520358 114484 508265 133932 -308438 -170934 
161 1 42.0223 40.5424 20.3531 6.51398 -118719 -2.1405e+06 945263 -597594 375118 -1.03804e+06 
165 1 44.5912 40.3744 20.2053 6.09087 -437312 222213 418894 -175781 -197064 230830 
189 1 45.7659 41.0362 18.005 3.72824 -705058 561799 1.10807e+06 -265942 -66782 322647 
169 1 47.0537 40.2208 20.2242 5.30614 -541952 944063 83427.5 491698 370926 112236 
193 1 48.2013 41.1748 18.293 3.86416 67186.9 370165 -985226 785531 196484 -27216.8 
173 1 49.4842 40.3199 20.3629 5.88553 -361656 -97742.3 -549340 -76244 16677.2 -19360.5 
175 1 36.9938 43.32 18.0442 9.29929 -106364 791329 914092 21538.3 -289571 -84864.3 
180 1 37.9577 42.4906 20.1435 12.1037 240997 257503 -530151 115360 223936 257938 
178 1 39.4373 43.36 18.1193 5.35543 -388182 -638259 -461224 -624683 530372 497956 
184 1 40.6651 42.5971 20.262 5.03423 56176 62979.2 689745 -62373 115046 319925 
182 1 41.9794 43.3372 18.2144 5.58352 -316324 -331960 -145228 -164665 -43405.6 38589.7 
188 1 43.1732 42.5902 20.3675 5.34022 -299252 -767590 -592387 -564909 137865 -96132.7 
186 1 44.4721 43.2831 18.3207 3.39598 -275411 12158.3 -463705 -510882 220200 121611 
190 1 47.06 43.2969 18.1754 0.621035 -240035 -537160 -182522 405646 -201423 -529.998 
192 1 45.8712 42.5406 20.2766 6.03476 -82268 439962 548530 -228351 -84588.4 222387 
194 1 49.5935 43.3014 18.3358 1.95101 -665702 242219 -1.13548e+06 328284 -52085.4 179212 
196 1 48.3267 42.6251 20.3836 5.78716 -280543 953813 -600807 336543 139522 -54742.6 
199 1 35.7011 45.6091 18.0771 9.80587 183568 1.48509e+06 827583 -123449 237756 300542 
176 1 36.7163 44.6556 20.1624 11.5885 171092 10843.6 331641 113658 -36550.8 -50440.5 
179 1 39.2181 44.7575 20.2113 4.38527 473140 573822 325848 28498.9 3354.28 -189770 
207 1 40.6947 45.5249 18.226 5.57351 -134803 -742582 -855612 -228850 -251997 169953 
211 1 43.245 45.5246 18.3834 4.47235 -196133 184195 -453691 -8666.51 -305978 -78741.3 
183 1 41.7871 44.7533 20.4016 4.8098 85648.8 -556442 -199426 10452.9 -111473 -152646 
187 1 44.4939 44.7885 20.324 6.15137 -173728 -2022.65 -767996 -8588.55 -267322 57049 
215 1 45.7373 45.5109 18.2202 0.379241 -590602 -667080 -463702 -381451 48408.1 -122905 
191 1 46.9996 44.8478 20.2424 6.17473 -181413 -216527 105758 -125182 -7188.99 80010.9 
219 1 48.3011 45.5078 18.2012 0.318344 -176230 202808 -919655 88116.5 -328873 -68784.4 
195 1 49.5868 44.8631 20.3243 5.90056 -179733 -129451 -95047.1 -40918.4 -152381 -156421 
197 1 34.376 47.8308 18.2029 0 81133.5 157864 23248 -373490 188729 183653 
202 1 35.4621 46.8473 20.2373 10.9093 -133361 693568 -61189.5 788054 33136.3 30268.1 
206 1 37.838 46.9184 20.1232 5.1782 350468 -168960 598694 158042 213024 -211215 
204 1 39.3323 47.7087 18.2526 6.0591 -256435 -633780 -258003 -70805.4 238155 -151246 
210 1 40.5489 46.8912 20.4246 5.3227 902163 -277388 7978.28 348333 -32503.5 79552.1 
208 1 41.9309 47.7311 18.3917 5.02241 -80718.8 -206638 -675240 -304012 -197370 -94873.3 
216 1 46.8748 47.6575 18.0315 1.83699 -285193 752733 2.75861e+06 -603829 845091 1.23592e+06 
218 1 45.7056 47.0426 20.2689 6.10784 -285566 -521626 181765 334665 96702 -233199 
220 1 49.5378 47.832 18.1297 0.172604 34742.8 76408.1 -297663 336344 -316766 68484.6 
222 1 48.1817 47.0093 20.1882 5.86279 -5573.36 -92008.1 441856 -175635 88919.5 -225583 
198 1 34.4457 49.1221 20.3833 16.8471 -470808 238435 -353027 235304 -2856.01 213429 
201 1 36.8328 49.1087 20.3067 5.45914 -986350 804518 862163 1.00471e+06 279772 1.06922e+06 
378 1 43.1161 49.7977 26.6035 5.62929 -250985 -143319 -339914 -146186 105978 188393 
225 1 40.6592 49.908 18.4283 4.20167 -838214 -400169 -912137 -184692 -44112.7 22980.8 
205 1 39.3814 49.0546 20.4233 5.64542 22166.9 1.06497e+06 -930978 -337430 -21471 180121 
226 1 43.1315 49.9113 18.2415 3.13108 -886519 -1.11047e+06 61187.6 333748 390879 93016.9 
212 1 44.4424 47.8086 18.1515 2.57097 -424325 -4261 760516 -46234 82746.8 -442144 
213 1 44.4914 49.1175 20.3819 5.52775 -208671 -229945 80706.4 212470 33997.2 79310.7 
217 1 46.974 49.2859 20.3214 5.98317 -709566 41169.2 731096 -121450 180606 876699 
349 1 34.2651 47.8181 26.6288 0 392997 408953 352991 -12596.5 -200540 60359.9 
221 1 49.5212 49.2421 20.2572 6.0329 -103198 -268736 60807.4 151488 -121513 24453.9 
230 1 48.5305 34.3315 22.998 0 453127 -540204 117881 -7507 -52143.9 249766 
153 1 44.796 35.5539 20.4488 10.4985 724128 355398 332415 -42807.7 91309.2 256318 
239 1 43.4687 36.7909 22.3156 11.492 32502.7 -326873 479364 -584743 -230961 116576 
155 1 47.2676 35.0956 20.9849 10.4167 9707.39 -226034 -414459 -410860 104936 -729747 
243 1 46.0345 36.748 22.4369 6.80387 -1099.82 -391093 394261 -140684 114227 104695 
157 1 49.7917 34.9748 20.7945 8.35794 -404188 247672 54729.5 -135272 -139293 -197375 
247 1 48.4643 36.6112 22.3538 9.99244 -86640.4 -1.1305e+06 139133 -230714 -398335 -119944 
162 1 40.4218 37.3801 20.8193 19.0998 760979 450684 452092 -132916 439839 130826 
234 1 39.4483 39.0707 22.2971 0 36437.4 -87378 403192 -113477 608.651 -42387.8 
236 1 41.9514 38.743 22.2824 8.01361 660515 1.04006e+06 464818 486416 407047 -100657 
240 1 44.6039 38.8611 22.3906 4.69651 -53736.3 -848397 296454 -314868 42753.8 35437.6 
244 1 47.1474 38.8968 22.3798 5.3638 -346115 -679546 888952 116331 1.08661e+06 642661 
248 1 49.5949 38.8872 22.4274 5.74121 -865952 -263131 -536494 -123656 -223940 71177 
253 1 38.3933 41.3757 22.3284 0 -558668 -791539 -152024 346214 80611.4 -167384 
257 1 40.8007 41.0852 22.3723 5.03188 -858409 -65045.2 -720498 -208282 304173 -57226.4 
261 1 43.3546 41.0462 22.4439 4.90325 -232089 220696 -261706 234420 -195410 102109 
265 1 45.8269 41.0691 22.4199 5.74231 -434181 -160298 271611 -78803 -95520 44289.2 
269 1 48.3104 41.1004 22.4469 5.81139 -235421 -357625 70916.8 16152.6 268536 -153439 
251 1 37.1808 43.4822 22.35 0 -292533 -587260 -38437.4 461535 -4397.98 -4526.83 
254 1 39.6513 43.4344 22.3796 4.51211 -479751 -369753 389169 -232937 -4301.44 -181865 
258 1 42.071 43.2652 22.462 4.8122 -900037 -34177.5 -533163 -207906 483166 -30596.8 
262 1 44.5392 43.3038 22.3629 6.05146 -584911 -197550 234958 24891.6 -409369 -223268 
266 1 47.0287 43.3045 22.4322 6.35131 -416124 167869 -59688.8 71568.7 31650.7 -88586.2 
270 1 49.57 43.3716 22.4504 6.17567 -138136 -104936 -352758 -293031 27133.3 -100380 
279 1 38.318 45.7152 22.3178 4.62605 29361.3 -9157.46 506640 -161085 -1057.98 -174109 
283 1 40.7687 45.576 22.4704 4.96305 -935430 -657730 -378970 -197662 -3117.47 -93115 
287 1 43.1757 45.4897 22.421 6.03393 -885203 -439476 -387300 101557 -20988.8 155229 
291 1 45.721 45.5354 22.419 6.25273 -103440 90012.7 113706 -109042 -123557 -23037.9 
295 1 48.2705 45.5943 22.4132 5.95315 22759.7 -14841.4 270975 16752.6 22891 -73731.9 
275 1 35.8049 45.5548 22.3289 0 133768 -256957 95352 265993 -143858 261812 
280 1 39.4758 47.8203 22.569 4.91876 -730199 -1.28294e+06 -1.00895e+06 93.3517 95638.2 137321 
214 1 43.1416 46.9506 20.3863 5.64637 257213 -36599.9 -791461 36841.8 -50824.1 -55645.7 
284 1 41.9731 47.72 22.4697 5.68215 -741260 -872574 -639832 -63996.1 -15346.6 -47304.7 
288 1 44.4601 47.7558 22.439 6.12965 -501450 -578775 -203565 58912.4 3665.99 -109548 
292 1 46.9805 47.7725 22.3789 6.02118 19290.4 -160275 280019 307276 -12137.9 -39908.6 
296 1 49.5402 47.7125 22.3487 6.11422 365509 274118 634187 -195146 31483.2 16438 
273 1 34.6367 47.7524 22.3874 0 -333206 -486576 -715456 51023.8 -177369 478674 
276 1 37.0055 47.841 22.4041 4.377 -523214 -246538 388416 -154305 -179569 224692 
380 1 48.293 49.9086 26.5955 6.09687 31886.2 -115603 -407206 87328.8 76140.4 94197.7 
227 1 45.6747 49.9663 18.234 2.89373 -615652 -640168 -967625 -600520 -333517 -242330 
209 1 41.9074 49.2329 20.4041 5.92985 -188399 -291113 -723384 -13748.5 -125230 -58322.6 
372 1 49.5222 47.7161 26.6145 5.99963 24843.4 -172072 -363298 234823 -74025.6 -90398.4 
303 1 45.7322 49.9001 22.4839 5.78279 -597949 -690670 -476243 114101 -23253 215878 
379 1 45.6967 49.8692 26.5981 5.68295 -60775.3 -88569.7 -616209 23813.2 -45749 99955.6 
229 1 44.597 36.0706 24.4776 0 235759 -452276 428218 -121091 88278.5 -69606.8 
231 1 47.1481 35.7093 24.4933 9.51631 1.32866e+06 1.34888e+06 968884 -274622 345370 107181 
233 1 49.7993 35.8398 24.5393 6.6675 491260 450444 645363 -228008 -205149 138457 
238 1 40.631 38.3088 24.3911 16.5922 512113 -28159.1 663232 -157239 -135842 59761.1 
242 1 43.2461 38.1559 24.4785 7.31173 205912 -265252 415940 111500 213571 82464.1 
246 1 45.82 38.1585 24.5355 5.4471 -301299 -139147 -469219 -830799 -205224 18054.7 
250 1 48.3811 37.992 24.5032 5.04913 397843 1.14449e+06 180137 -147035 92096.8 -8612.87 
235 1 39.2848 40.3891 24.4632 9.81859 -603853 332713 -281691 -19230.5 210764 45739.4 
237 1 41.9515 40.3506 24.4741 6.25347 -831658 -399842 429198 -344986 -118224 46331.8 
241 1 44.437 40.2535 24.5676 5.22383 -507653 -355813 -240809 159415 -16684.4 58798.2 
245 1 46.9772 40.3411 24.5426 5.26642 47096.8 13939.5 -406675 -428443 -44188.2 174225 
249 1 49.5593 40.2573 24.5415 5.60103 455138 388597 -280631 135139 112690 -103874 
256 1 37.9691 42.5042 24.4803 12.1049 358710 -1898.65 -165778 363677 373631 166062 
260 1 40.5567 42.4534 24.4738 4.61615 523700 248250 -21286.3 -262975 113311 -37491.3 
264 1 43.1608 42.4575 24.5652 5.45288 14106.7 -724432 32162.2 -64865.1 -506505 -311791 
268 1 45.7481 42.5304 24.5155 5.9318 90058 -30882.4 -431742 192621 40254.6 -82420.7 
272 1 48.3276 42.5244 24.4694 6.12707 73174.9 54660.5 -513210 -125626 74749.6 -83463.2 
252 1 36.6349 44.6584 24.4655 12.9759 472239 418193 -218082 138525 1541.61 35903.4 
255 1 39.2006 44.7039 24.4835 4.29645 1.00973e+06 351298 695390 164581 45456.8 -34857.9 
259 1 41.8746 44.6144 24.5143 4.55406 516620 3358.73 -654277 99343.8 -27016.1 108367 
263 1 44.4225 44.6752 24.453 5.63029 -8150.63 87395.1 -235639 -25236.4 -107867 178077 
267 1 46.9554 44.7995 24.5209 6.15494 -33117.3 29943.4 -157128 42942.2 104767 11488.8 
271 1 49.4994 44.7915 24.5171 5.75895 185471 115259 -223982 -41058 -92300.2 -82054.6 
278 1 35.3634 46.8911 24.4835 12.1681 944336 471574 372573 1.63956e+06 404011 1.07095e+06 
282 1 37.9749 46.8589 24.5649 4.32712 766886 370936 55149.8 138084 340780 94292.6 
286 1 40.5043 46.881 24.5349 4.89732 208296 274030 -287301 155567 -145776 166591 
290 1 43.0246 46.932 24.5068 5.19209 610181 550920 -326563 219835 -124458 115698 
294 1 45.6638 46.9605 24.5846 6.18965 456053 96186.7 -238850 10022.3 -97167.1 61618.6 
298 1 48.2383 46.9857 24.5428 6.02307 168635 -106347 -56456.3 100737 75767.7 -171496 
274 1 34.5305 49.1486 24.5061 0 -2.02461e+06 -1.10776e+06 67933.4 498990 -41741.8 103476 
277 1 36.8491 49.1033 24.5366 5.39268 -1.16351e+06 1.79249e+06 750671 892505 455737 -65804.8 
281 1 39.3151 49.1322 24.543 5.25913 -588595 168462 -662377 123642 84923.8 -392601 
285 1 41.8061 49.1631 24.4978 5.27344 -334259 25567.7 -561248 18116.6 -11108.2 6045.35 
289 1 44.3916 49.2317 24.5483 5.50303 -311294 129918 -1.07877e+06 332699 -286746 -2733.25 
293 1 46.9669 49.1479 24.5109 6.33671 108424 150956 -200487 204610 -83027.4 62405.2 
297 1 49.5236 49.1984 24.4944 6.20622 284739 182436 14526.5 -32530.1 17604.6 82844.6 
306 1 47.3572 34.5578 26.6722 0 -155180 -154520 127156 -258682 -42450.4 -65625.7 
308 1 49.7379 34.4471 26.5165 25.8838 -80653.5 472097 748186 388555 -11558.9 183233 
315 1 43.444 36.7536 26.5507 0 -81844.7 -34823.3 1184.11 -178668 -21445.9 32654.5 
319 1 45.9653 36.6823 26.5642 7.41665 -145516 -75197.4 -482081 53115.7 164569 194448 
323 1 48.4888 36.7305 26.6748 5.37155 241945 -692165 444175 -116580 253649 398817 
310 1 39.4858 39.0634 26.6185 0 -577688 -813075 121524 -307050 86946.9 -338011 
312 1 41.8698 38.7271 26.5563 8.20831 425037 763149 187606 201168 200051 -47498.1 
316 1 44.5857 38.9054 26.6849 6.25022 411265 -689369 24449.2 128899 160882 155199 
320 1 47.1189 38.8693 26.5407 6.07561 -310410 -316463 -239059 -223405 -177871 125287 
324 1 49.6267 38.9505 26.6858 5.55821 -343467 -798105 -522065 69366.4 -175084 148121 
329 1 38.2035 41.2143 26.5911 0 -235786 -506793 -225916 138273 5338.5 35073.4 
333 1 40.7196 41.0883 26.6483 5.12756 -20821.6 -619035 515659 -223769 -637621 -722148 
337 1 43.2232 40.9474 26.6695 5.31287 9493.69 311555 -306761 397742 197993 -3639.56 
341 1 45.8034 41.1497 26.6421 5.7729 -44587.5 -390330 -121133 -249423 86544.4 -47850.3 
345 1 48.3379 41.053 26.5595 6.19527 -279429 -405050 -224949 173928 -37048.2 -24443.2 
327 1 37.1505 43.5038 26.6068 0 -1.0469e+06 -927180 -268775 -125157 -35142.6 -13379.3 
330 1 39.5171 43.2992 26.6019 4.6395 -1.2536e+06 -778715 267903 379166 67427.1 49248.6 
334 1 41.9636 43.3425 26.5979 5.16092 -656707 -371267 197108 234756 -535771 -216290 
338 1 44.4408 43.2654 26.5263 6.6361 -254238 128845 -136441 174817 -69503.8 -114812 
342 1 47.0364 43.2714 26.5208 6.46408 -136074 -383789 -46325.2 -243777 -43449.3 -28399.8 
346 1 49.5695 43.3035 26.5884 6.26771 -44541.1 53572.5 -398052 57180.8 -71859.6 95372.2 
351 1 35.7404 45.602 26.5939 0 17975.1 -419390 -374036 -142784 -132837 179616 
355 1 38.2536 45.5188 26.7168 4.6614 -693904 -1.01515e+06 -36382.8 -438055 186232 360706 
359 1 40.6888 45.4915 26.6317 5.12521 -757644 -491780 268467 49653.9 141715 122904 
363 1 43.1563 45.5123 26.6052 5.68898 -589501 -721692 23037.2 -349545 -40977.3 -27259.7 
367 1 45.7106 45.4685 26.5643 6.38827 -201503 -259708 -316481 41440.1 95113.2 158469 
371 1 48.2529 45.5002 26.7043 6.52175 -399563 -304270 -506376 12216.8 55697.4 191899 
352 1 36.838 47.7614 26.6544 5.27644 256390 -460650 543731 -64243.7 839670 656901 
356 1 39.3225 47.7443 26.7055 5.40333 -108465 -637733 -307749 -84333.3 -13897.2 -115625 
360 1 41.8599 47.697 26.6266 5.81813 -321964 -621592 -422657 -171364 -59419.9 -42434.6 
364 1 44.3896 47.6377 26.6625 6.21564 -320022 -585279 -325662 -50357.3 45348.4 -175398 
368 1 46.9801 47.6355 26.5921 5.77263 -150635 -172605 -456200 70120.8 -102562 -139937 
302 1 43.2444 49.8601 22.5615 5.42203 -844844 -730666 -870701 100834 -166472 -59013.3 
304 1 48.3033 50.0262 22.458 5.67388 -53371.1 84974.8 17743.3 21922.9 -55972.8 117022 
377 1 40.5654 49.9552 26.6257 5.86161 -572911 -385229 -590218 -157844 -24321.5 10281.9 
301 1 40.7037 49.954 22.4424 5.31036 -411468 -662695 -664589 -169029 -50852.4 179739 
376 1 38.0991 49.9505 26.6234 5.71152 -392174 -472813 -359522 59042.7 -9020.02 147422 
228 1 48.1884 49.9504 18.2602 0.193489 -350602 -182714 -978542 368288 -84487 37510.3 
223 1 35.5387 49.9937 18.3411 6.74518 -478388 -1.55894e+06 -1.50862e+06 552037 -262073 -129405 
224 1 38.14 49.9068 18.3974 5.22144 -309644 -518319 -1.07776e+06 -125311 -101891 416195 
305 1 44.7447 36.1098 28.5528 0 460781 -153467 909361 -19327.2 682394 332654 
307 1 47.2412 35.8894 28.7278 9.58677 468631 300676 359447 519255 247804 -120915 
309 1 49.7454 35.8436 28.7003 7.88233 997837 348426 1.15833e+06 463997 -255219 555502 
314 1 40.7307 38.2195 28.7224 0 -26776.9 -88815.3 -218530 -151477 112471 -212573 
318 1 43.277 38.1108 28.7348 7.28986 105082 683581 204554 179709 484185 -190496 
322 1 45.9248 38.1974 28.701 5.95045 -645810 -413066 332344 -66007.9 -311721 -221189 
326 1 48.3522 38.1818 28.7418 5.61855 -826635 -79815.9 -59672.1 395766 195088 -236855 
311 1 39.1986 40.2479 28.7029 10.7277 1.239e+06 -89203.3 150194 371182 20874.4 -710188 
313 1 41.9564 40.3431 28.7105 5.81586 705978 -602454 122607 -369621 165367 -167982 
317 1 44.5741 40.3614 28.7781 6.03601 -119352 43513.5 -427276 8880.64 -56531.1 -164923 
321 1 47.1187 40.3931 28.7692 6.42171 -531463 -406059 -109545 -138673 9256.31 -87180.6 
325 1 49.6087 40.4073 28.7066 5.9186 -418179 -262862 -546566 97557.6 529.257 -163414 
332 1 37.976 42.4913 28.7012 10.5841 210514 86230.6 39224.3 151471 80354 -113584 