ITEM: TIMESTEP
90000
ITEM: NUMBER OF ATOMS
5538
ITEM: BOX BOUNDS pp pp pp
0.102528 99.8975
0.375086 99.6249
-1.68747 101.687
ITEM: ATOMS id type x y z c_csym c_2[1] c_2[2] c_2[3] c_2[4] c_2[5] c_2[6] 
4 1 49.2312 37.394 7.56381 0 -379023 -29909.9 -48759 146844 -78284.6 -80265.8 
10 1 44.473 40.7437 8.08913 0 161515 194562 718083 -320158 46069.1 237552 
47 1 39.3071 44.9719 7.71245 0 -336200 -385097 -508133 56518.3 -90148.2 -89487.5 
60 1 44.5452 48.1853 7.98039 0 83774.8 -344423 -145822 12155.6 -138723 -324241 
5 1 48.6784 36.4585 9.82625 0 170400 277157 124556 -362448 109022 -205291 
15 1 45.2935 39.2704 9.85447 11.2298 -303630 996672 278314 -122275 -454178 -738735 
2 1 47.4935 38.598 8.93942 15.4489 1.28102e+06 112093 -92199.9 172803 -231539 -423965 
6 1 42.3141 40.0257 8.82768 0 38990 20539 281534 -257617 85086.9 1734.81 
1 1 46.9063 40.9716 8.75667 16.1609 1.19656e+06 -320884 49481 704982 201807 -256244 
25 1 38.4109 43.0261 8.5967 0 787585 -37145 -229085 105602 67111.9 166544 
7 1 40.2952 41.6272 9.03981 0 663807 177639 366449 -131359 -165771 46332 
9 1 42.7844 42.38 9.16356 12.4839 1.92051e+06 102557 -40765.6 -454271 -439123 -135783 
11 1 45.3984 42.9316 8.7462 0 598400 439808 88894.4 593428 -149040 329724 
14 1 47.5496 43.036 9.88258 8.75667 -611880 -930099 342574 855839 -534651 -405307 
2854 1 49.3792 41.6869 9.17382 0 1.21038e+06 760350 265400 693366 512370 -236225 
24 1 36.6426 44.3081 9.75935 0 66575.4 116802 199900 -79173.7 -118768 267098 
32 1 40.7526 43.9768 9.32645 9.03075 452191 169445 -771248 -343567 101094 193410 
31 1 41.9076 45.7659 10.3086 11.0976 58298.3 52435.6 125333 26878.8 -1.10855e+06 -230642 
35 1 43.9002 44.1606 10.3954 8.01655 -16830.3 -149879 -210873 -488319 -173555 -464623 
39 1 46.2713 45.0862 9.91431 9.52685 -71419.6 248191 353981 758433 -79295.4 96694.2 
2853 1 49.6738 44.2467 9.3145 14.6576 566036 947969 -342929 324233 -153320 25767 
48 1 35.8835 46.544 10.5985 0 301194 571415 85311.2 284564 -271756 460602 
50 1 37.4589 46.155 8.58411 0 -138088 -134050 100021 40277.6 -187262 85175.1 
23 1 39.5994 46.2618 9.71675 11.1855 -121267 1.15148e+06 -356144 260034 -164419 -209569 
62 1 42.5843 47.9631 9.44228 13.0692 -1.09336e+06 -1.05743e+06 233095 987868 -96901.7 165872 
63 1 44.2337 46.451 9.80606 8.00506 -1.57839e+06 -1.41484e+06 317137 703994 -38942.3 448215 
66 1 46.3042 47.5731 9.7011 12.1298 442696 1.14728e+06 -243171 -1.30182e+06 -172181 -18490.1 
43 1 48.4579 46.2897 9.7693 13.0438 490746 206268 579167 -261770 -114843 -494204 
45 1 37.8948 48.0049 10.1441 12.586 -90338.5 -76591.8 -491594 123318 -324744 -392332 
52 1 40.4837 48.5919 10.4604 6.81812 -249837 875934 238504 730823 60908.2 -192921 
61 1 44.6455 49.6314 9.83203 11.1447 790408 903355 -486317 -928304 -504719 -374571 
2876 1 49.6357 48.3121 10.1278 16.6376 159964 872287 113740 -434748 510902 -6715.11 
19 1 45.7335 35.8231 12.6997 0 345713 198885 -614802 -169699 61827.7 -10522.9 
22 1 48.2004 35.8351 12.1208 0 -107770 31449.4 -363654 -393972 -272799 -11803.8 
18 1 44.6903 38.0559 12.092 10.2723 -15870 -349079 574854 585671 -488773 -954382 
3 1 46.4552 37.1932 10.7094 18.898 4124.17 340502 88756.1 -278346 -303425 -476296 
21 1 47.682 38.2337 12.3235 6.41313 -526153 -184743 -397936 -213446 -488736 -184374 
2837 1 49.8006 38.1368 11.0909 5.0325 497793 -620805 -407635 -471524 -38728.3 -378847 
29 1 40.7542 39.8924 10.7401 0 25753.2 -131728 -81098.4 103863 -57591.7 -116311 
8 1 43.2319 39.6429 11.0556 9.85152 -191920 175254 467322 683146 8599.38 125875 
12 1 41.8515 41.0877 12.5356 9.1651 -121489 62559.2 -766029 316912 -454064 277890 
13 1 46.0752 40.0754 11.8915 4.34657 13406.6 -432211 -1.26963e+06 -185120 -542415 100335 
16 1 48.1667 40.0313 10.6839 6.27648 -686372 192133 -155857 -242162 -657247 -338094 
41 1 49.2581 40.048 12.8436 5.5542 -1.39261e+06 -483152 -1.01055e+06 -193831 -735069 33694.1 
26 1 39.7432 41.9913 11.4243 12.0231 -13635.1 -36166.8 1.09738e+06 -72341.5 -342680 18691.3 
30 1 41.8065 43.1339 11.3087 7.43324 -192983 -557709 -87372 -41534.6 -204961 394129 
33 1 44.6722 41.6461 10.7058 8.69359 -354767 905233 -289496 99105.5 215990 7344.62 
36 1 43.8382 42.5852 12.6482 7.30594 1.93172e+06 1.00865e+06 -1.01706e+06 -6973.3 -554902 -870156 
40 1 46.4588 42.4809 12.1964 7.25708 1.85695e+06 -698083 678439 -46848.3 -812683 -173258 
44 1 48.8707 42.2293 11.7464 10.4605 -20016.7 -492867 -131851 -356455 -197876 405981 
28 1 38.8744 44.0867 10.6883 7.89962 -953992 314538 -563486 194949 -338634 -678291 
51 1 37.2021 45.1916 12.05 8.71881 -414642 -146582 -223271 612632 58865.8 254025 
27 1 40.3425 44.8136 12.3464 8.82576 210830 1.04613e+06 -870457 107839 -1.46879e+06 -1.47729e+06 
59 1 42.9218 45.2197 12.3686 5.62409 -962983 -75531.5 -2.08425e+06 114984 -264273 -191594 
64 1 45.4105 44.6652 12.2007 3.71806 147072 -695637 82446.8 186915 122597 -813382 
38 1 47.9064 44.552 11.9007 4.45713 -983251 -305112 782562 263351 149269 -512734 
49 1 35.0019 46.1173 12.7984 0 -189193 -222907 -360599 -174418 239530 -129773 
54 1 38.9958 46.9606 11.9737 11.3623 825458 306243 -431392 11061.2 -271075 308118 
58 1 41.5533 47.2463 12.2392 7.85117 -174265 153705 -385301 202787 181510 155520 
75 1 44.5565 46.988 12.0775 6.88198 -714338 212693 -302881 873009 290003 211265 
70 1 46.9522 46.7941 11.8986 4.64478 -1.1704e+06 -496863 -92419.8 -3406.64 -23413.7 -455552 
68 1 49.5311 46.5219 12.006 5.45023 -638286 -313134 511246 491828 282671 -260474 
71 1 36.3223 48.7179 11.8807 10.6603 317445 455700 -197042 209429 436363 93744.2 
53 1 38.7952 49.369 12.1611 5.98162 996128 616469 -65391.8 -7331.02 81670.3 -626180 
56 1 43.126 48.8185 11.6425 7.69993 -524130 -145020 406634 -334177 50410.1 263039 
65 1 46.0921 49.0891 11.69 8.39737 -93849.2 287692 40224.1 739357 -428973 -181455 
76 1 48.5025 48.6345 12.2048 10.2073 -605978 -1.05405e+06 -1.97254e+06 470653 -6999.63 -193454 
90 1 43.4902 36.4181 13.571 0 380822 275743 1.08173e+06 60629.2 -59605.2 -184605 
94 1 45.3469 35.3861 14.9787 11.432 -642826 -38504 -716090 -97032.1 647209 261908 
98 1 47.4197 36.498 14.3594 6.26341 -505600 -378362 812766 14172.5 589795 442757 
81 1 49.3309 35.4255 15.2661 11.0524 -1.77006e+06 -131052 -307375 916535 -106495 -320296 
20 1 49.7686 37.0365 13.3483 7.97334 -868341 -170126 -173811 543891 -495862 -296721 
88 1 42.5298 38.7103 13.4114 8.2139 351184 -145383 473362 -451485 -43448.5 -101306 
84 1 41.581 37.2287 15.2418 0 141492 362334 312009 -18361.5 -312842 184455 
113 1 43.985 38.1014 15.4574 10.6918 18819.3 175124 612928 139090 191717 -6043.46 
93 1 45.9572 38.5456 14.0431 7.38215 204574 571345 -329031 -440027 -491209 -20486.4 
97 1 48.5013 38.6709 14.6781 7.98177 -529152 -146729 -729358 -906177 192272 -527530 
105 1 38.0881 40.1369 15.1233 0 439120 327063 244622 238002 29243.7 -243036 
85 1 40.4223 39.3116 14.681 12.9182 450496 7700.5 245296 -283475 417270 68548.9 
112 1 42.212 40.8561 14.8866 7.8411 -462959 343267 -645397 -72958.2 -449807 40018.1 
89 1 44.2606 40.3292 13.3942 8.59488 -264270 -400137 517573 -235090 95890.1 -363226 
17 1 47.2048 40.8481 13.8464 8.09009 50163.7 763831 -737624 -252421 355849 -297341 
100 1 38.3661 43.3191 13.1813 11.711 518710 439629 1.70158e+06 417421 -601475 -153229 
108 1 39.8681 41.5873 13.9885 9.9816 -41181.4 448928 571739 860308 -217188 -18259 
107 1 41.8022 43.3763 13.9602 7.86336 649257 956674 1.81128e+06 186876 871039 521354 
37 1 45.3706 42.2381 14.5422 7.93938 -511754 -335229 -100517 -5912.61 -543017 -233720 
120 1 49.1393 42.3186 14.1944 7.85821 1.0802e+06 1.72922e+06 1.14423e+06 -147948 -571758 326721 
121 1 34.1949 45.3383 14.8801 0 -185592 256715 -344281 -128834 -142580 308762 
123 1 36.0814 44.0886 13.8972 0 374208 120696 164574 -248124 -60418.2 -23608.8 
103 1 38.7561 45.6148 14.0894 9.86975 -967927 10900.5 -523126 521473 -55265.2 391795 
111 1 44.0296 44.3967 14.3694 5.73368 -383550 -644801 -714314 18803 -614561 246435 
34 1 47.088 43.9928 14.1931 5.86452 748954 1.16205e+06 1.48208e+06 -675080 501275 -457549 
67 1 49.4473 44.9485 13.943 9.01585 337505 1.15634e+06 429885 264608 509389 -41378.9 
130 1 37.0481 47.1657 13.6125 9.37265 -497817 -565818 335997 293569 -553992 -39867.4 
55 1 41.1929 45.7903 14.2514 8.92585 -913542 -1.06988e+06 -2.49088e+06 146305 -519121 -471580 
134 1 40.0292 47.9391 14.0463 8.52435 -89644.6 41617.8 585320 -178948 560025 -398649 
138 1 43.3234 46.8356 14.1131 8.11671 -721313 -773804 -1.24714e+06 251417 -91064.2 50724.1 
142 1 45.7706 46.1523 14.0559 5.22986 239660 -564416 -1.15224e+06 -67215.8 -462543 -684487 
146 1 48.1402 47.0755 14.1192 6.19292 46073 417490 -428263 358578 528430 15003.3 
126 1 34.8601 48.2757 13.7804 11.0755 -507037 -1.04906e+06 -303334 -409916 348621 -19406.2 
129 1 37.8181 49.2304 14.4454 10.697 168924 223403 -126025 -84928.6 -360503 -420310 
133 1 42.1838 48.9603 13.9478 7.70822 -376878 -1.55462e+06 497311 -184438 -94822.7 647000 
137 1 44.6357 48.9242 13.7513 8.29058 -71283.4 -256003 813192 -167485 421871 -198582 
141 1 47.0376 49.4074 13.9519 8.29047 -735161 59408.7 24639.9 -550358 -48574.2 -679161 
69 1 49.616 49.2215 14.1422 4.90395 -607114 837872 -1.36312e+06 -499236 -581784 -153382 
78 1 47.0403 32.6959 17.2803 0 67658.8 269729 -46855.7 -117295 41114.5 -271.387 
79 1 44.9832 34.2116 17.2138 12.5951 542015 -13839.4 80664.3 -23909.3 -262870 -40414.2 
80 1 49.3402 33.4094 16.6524 0 -436484 398910 70963.6 -435396 754466 22527 
82 1 40.2637 36.9009 17.2409 15.9399 384114 -346107 146040 -314739 -550642 -329232 
87 1 43.3035 35.7441 16.1899 10.9721 -214554 349127 603990 295399 485658 -296106 
77 1 41.6951 35.0068 17.8324 0 -1609.79 -830225 304023 -469885 178218 -10779.1 
95 1 47.263 35.1049 16.5433 8.73847 370392 328814 69130.5 -197468 27896.7 90716.4 
101 1 37.2549 39.2291 17.316 0 -482490 -223598 181721 -269695 21832.8 -421608 
164 1 44.5121 38.7616 17.9013 8.93449 919026 267812 1.20526e+06 -149079 -17011.4 182019 
92 1 46.0829 37.3399 16.359 8.00501 10093.8 395440 1.38292e+06 -268257 669148 208395 
96 1 48.5884 37.2904 16.6402 8.29258 833749 -362922 1.04085e+06 -34056 173327 621958 
83 1 39.6413 39.1975 16.9104 7.15312 -460473 -18400.2 -558562 -82968.2 54623.4 245141 
109 1 42.1847 39.2244 16.6718 5.73811 843154 1.02651e+06 747012 -393155 265439 544334 
116 1 44.4608 40.3969 15.8985 9.79446 289665 55701.6 499893 56057.2 103946 -117265 
117 1 46.7352 39.6977 15.9673 7.95542 -618795 -935994 -1.48157e+06 -212438 -161397 192115 
189 1 45.8355 41.0526 17.9673 3.29295 106493 387936 605626 -27035.5 92160.7 86844.6 
2924 1 49.0153 40.5105 16.0673 7.59583 -1.37713e+06 -1.29937e+06 -428208 -94369.8 -247388 -771998 
104 1 36.3831 41.3843 16.3617 0 -283174 581742 -287647 -387984 76548.3 -126338 
102 1 38.348 42.5858 15.6784 9.1481 -263254 377348 2.0542e+06 108847 712139 -411834 
106 1 40.836 42.537 16.0959 7.40032 135323 -146473 9636.74 101523 25560.9 -8662.36 
110 1 43.3546 42.7007 16.0903 6.96735 363379 -149885 400995 100153 337803 -105681 
114 1 47.1949 42.09 16.116 5.45139 -543865 -561107 118597 -60913.1 -750467 -831287 
99 1 35.1705 43.667 16.238 0 -289685 611799 142341 -86031.8 -127656 494683 
199 1 35.7141 45.5811 17.8714 9.72185 340439 879990 943277 -298228 180650 117428 
127 1 37.2984 44.7566 15.8332 6.4143 -382406 -241450 -348150 -356561 -164639 749.476 
131 1 39.7758 44.662 16.1064 4.54536 -458404 -535878 -342489 129758 -283265 -29898.7 
135 1 42.271 44.842 16.2329 5.13579 129843 86328.3 885454 483365 -36429.8 1.23854e+06 
115 1 45.5793 44.045 16.2309 4.63508 -334579 -425572 -1.34321e+06 -105044 -27880.1 -345897 
118 1 48.6852 43.944 16.241 3.76654 -119990 -817251 -187593 62131.1 -459970 36890.1 
122 1 33.6191 47.656 15.7263 0 -305243 594737 604804 -106286 172608 378567 
124 1 35.8744 46.7697 15.7318 9.02221 -992927 231458 325381 -134792 -297055 -328834 
128 1 38.197 47.1707 15.9364 5.39249 -734987 -156512 381501 -411586 18208.2 -240912 
132 1 40.7213 46.9615 16.3153 7.68337 292079 110690 -730735 -424055 114803 -248725 
139 1 44.3478 46.1812 16.1919 5.23638 343636 480778 -355588 192726 -69841.6 -118606 
140 1 46.0537 47.8713 15.6248 9.86741 -1.12091e+06 -1.7264e+06 46442.6 1.38138e+06 1.19935e+06 -1.46103e+06 
143 1 47.2161 45.8184 16.1148 4.14705 -1.16587e+06 -423289 -114424 292396 -327466 759620 
144 1 49.5345 46.4022 16.0447 1.29314 -261522 -131629 445492 -479226 -116644 -7123.66 
147 1 33.6553 49.8186 16.8963 0 -464074 1.20227e+06 -86535.6 18861 -69206.8 76605.6 
200 1 36.8307 47.8319 17.8959 4.50386 618324 144185 1.74187e+06 -210218 532889 -951301 
125 1 35.7378 49.2509 15.855 5.55219 -31496.6 749450 784194 -496896 548633 -619860 
149 1 39.4538 49.2449 16.2855 6.72339 -711940 517020 -680373 -367345 -375726 -24581.1 
136 1 42.7762 48.1541 16.1414 5.8221 -165370 105697 -804501 -531924 -233236 -124321 
151 1 44.6692 49.4786 16.2162 5.77807 -1.52106e+06 -1.51772e+06 -122095 1.44372e+06 263418 -1.08409e+06 
145 1 48.2937 48.639 16.1183 1.93033 -237858 -132447 -224013 -478802 103648 -101838 
91 1 43.473 33.8998 19.1029 0 457670 155920 326008 -382880 -86372.2 -19838.6 
154 1 45.9713 33.5268 19.3123 0 690152 227297 -179940 -37646.9 -209965 130837 
156 1 48.3967 34.2809 18.7194 10.3719 664276 -83790.5 -193860 403921 142329 -198923 
86 1 42.2286 35.9508 20.1087 0 242030 288714 611972 -14602.1 89524.9 203258 
167 1 44.8773 36.3371 18.1826 7.7138 -177333 -392704 419542 67526 554244 357238 
153 1 44.6974 35.4852 20.4333 10.7095 513515 452302 101361 -107408 -242153 -224906 
171 1 47.2455 36.4014 18.6547 8.22868 -801386 7976.57 1.44026e+06 -316733 665612 -340930 
2980 1 49.6635 36.5682 18.7635 10.1399 -857188 734537 301789 -58889.3 -107332 -404762 
158 1 38.6946 38.0829 18.9366 0 -363965 208120 365413 -579144 489180 234627 
160 1 40.9924 38.7408 18.9285 6.6877 -1.44291e+06 -1.62554e+06 -1.56837e+06 -836415 -108292 -400502 
163 1 42.5438 37.1873 17.9871 9.41801 -160815 -927949 -532843 -338700 98982.9 -428144 
166 1 43.1683 38.2215 20.1324 5.88666 524317 -350909 -28.621 -101876 -285045 -328733 
170 1 45.7566 37.91 20.1485 5.49057 1.00335e+06 1.78067e+06 1.14285e+06 487266 189378 31938.2 
168 1 47.0891 38.9488 18.136 6.61571 535399 436667 -458825 147670 -373516 825821 
172 1 49.5528 39.0942 18.0734 8.03625 -366853 -293065 -499114 -171073 430911 -705563 
174 1 48.3196 38.0932 20.1476 7.21828 -276088 -166523 -194840 92663.4 -133978 -179893 
177 1 38.399 41.1655 18.0013 8.47339 -800245 -559073 573153 -571494 -243154 -656980 
181 1 40.7876 41.0911 18.0161 8.97775 -204280 229628 878471 -317611 -579235 316493 
159 1 39.2998 40.1641 20.143 8.40276 1.64936e+06 559534 1.11961e+06 462334 -79741.4 -527735 
185 1 43.2601 41.018 18.0275 7.42919 -14029 375647 380658 146847 -217361 -103328 
161 1 42.0031 40.3879 20.2502 6.35788 566186 -1.09915e+06 -308949 -142848 -306669 -934776 
165 1 44.5798 40.2921 20.0277 6.33865 172092 75756.9 255232 -380493 36700.7 75186.5 
169 1 47.1107 40.3266 20.2812 5.63556 -65199.3 303032 -392764 541286 100898 -104718 
193 1 48.3304 41.2275 18.2268 2.23969 -208355 -534531 -692860 504045 -34962.7 -130543 
173 1 49.6326 40.2428 20.2775 5.21883 -580893 -250699 -626013 19254 119137 212401 
175 1 37.0109 43.2458 17.8547 8.96875 -189033 48836 465119 85644.2 74919.1 -104031 
180 1 37.9353 42.2963 20.1379 12.3886 694570 610280 320895 -93880.9 227669 -264481 
178 1 39.4589 43.308 18.1773 5.87195 -230781 -700635 476112 -285414 274875 530408 
184 1 40.531 42.4182 20.219 4.81435 1.65757e+06 324820 509665 379415 77283.9 223604 
182 1 42.0446 43.2906 18.1925 6.17667 -419669 -314619 56572.8 -118578 -156555 8405.79 
188 1 43.2581 42.4902 20.2809 6.18998 956791 -434133 -322708 -337531 99283.3 274781 
186 1 44.5156 43.3158 18.2423 3.2904 -576165 49853.1 -750841 -347408 157788 248929 
190 1 47.0761 43.3477 18.1774 0.436882 -169985 -920755 -314569 507345 -185740 -372422 
192 1 45.8056 42.414 20.1765 5.74163 -201652 -307964 -46703.7 37193.4 -176835 276416 
194 1 49.6559 43.3441 18.3079 1.55461 -657776 -305985 -1.38725e+06 276422 -118184 244921 
196 1 48.3665 42.6004 20.3233 5.83106 -450335 164230 -853673 57859.6 354388 -189816 
176 1 36.748 44.5816 20.0518 10.5196 636327 553596 935985 -189497 79379.2 197268 
203 1 38.1688 45.589 17.9272 5.82175 52209.6 94446.1 273434 -360064 124908 -290563 
179 1 39.2565 44.7155 20.2947 4.99327 524493 274087 236598 12819 -23980.8 -166418 
207 1 40.7442 45.4819 18.2613 5.34358 -62459.3 -632903 -620204 -137046 -165402 -18275.4 
211 1 43.2634 45.4808 18.4006 4.39303 -264304 -237566 -420896 -184308 -303892 9917.76 
183 1 41.8467 44.6374 20.4263 5.71411 913898 456707 -415253 314409 204408 104089 
187 1 44.6061 44.7209 20.3064 5.62233 55372.6 -597798 -389863 -358132 -598553 221302 
215 1 45.8254 45.4678 18.1658 0.602704 -495972 -1.14705e+06 -982385 -213670 81120 -339554 
191 1 47.0115 44.7562 20.258 6.00197 -596159 -266762 -243009 224900 -96468.5 -50710.4 
219 1 48.392 45.5488 18.1926 0.405073 -409419 -338078 -728949 23120.6 -305226 -5119.83 
195 1 49.603 44.8589 20.3172 5.76135 119921 119361 -697487 104392 -10654.8 -236108 
197 1 34.3 47.681 18.1943 0 433474 663483 807037 -224186 245160 161169 
202 1 35.5223 46.7256 20.1225 9.29944 145160 811938 711257 330818 -350154 -160519 
206 1 37.9375 46.8687 20.1771 4.76979 194621 -18959 1.06913e+06 166477 285483 33995.2 
204 1 39.3706 47.6949 18.2803 6.56089 -273190 -827999 -660735 -162300 72310.2 -212461 
210 1 40.5436 46.8573 20.3337 5.44572 471878 -23792.7 -476512 77809.8 96560.7 47039.3 
208 1 41.9655 47.6809 18.358 4.8627 -345504 -545586 -829998 -448664 95917 -363796 
214 1 43.2239 46.8848 20.4988 6.693 311116 285435 234600 113434 -213671 -379500 
212 1 44.4022 47.6853 18.1256 2.63383 48356.6 -33509.5 806978 281707 -367072 -279609 
216 1 46.9616 47.6466 18.0046 1.4744 787780 647352 1.53298e+06 -271478 155616 358706 
218 1 45.7101 46.8815 20.2536 5.70849 -16198.6 -706475 492647 -62705.8 24260.3 -177570 
220 1 49.5812 47.7134 18.2631 0.365329 127035 -153162 -1492.04 -213535 151866 -108648 
222 1 48.2468 46.9964 20.2991 5.69706 335207 -113315 285130 -37944.2 207879 38512.7 
198 1 34.4323 49.1553 20.2601 15.9256 -207182 518501 -251214 20074.1 13606.9 360350 
201 1 36.8375 49.0154 20.2906 5.52193 -540491 335752 17521.8 711808 -24899.5 244206 
376 1 38.0665 49.9937 26.5852 5.07759 388952 379359 314262 -107132 -77088.6 69403.1 
224 1 38.1041 49.9172 18.2826 4.981 -437238 -759628 -1.17861e+06 449157 -221804 371643 
205 1 39.3662 49.1292 20.3085 6.35082 -92975.4 350000 -1.2023e+06 -174460 -19056.9 17497.4 
226 1 43.1218 49.837 18.1328 3.40546 -695032 -1.27189e+06 -322633 420544 329643 -188855 
209 1 41.9653 49.1179 20.2845 6.12001 -206387 142134 -607991 58778.4 -264817 -287015 
213 1 44.4365 49.1001 20.3461 6.20908 -500070 170959 518697 -27755.1 158592 47162.5 
217 1 46.9214 49.1475 20.2996 5.91555 -313261 147588 307831 101546 -70836.4 249410 
377 1 40.6091 49.8713 26.5952 6.41754 -3766.59 -250041 86155 -73239.8 8884.3 42320.5 
221 1 49.4957 49.1679 20.2879 6.04094 199874 188709 96717.2 -36534.6 64951.3 -144149 
228 1 48.2493 49.9432 18.2117 0.153704 101415 332241 -316928 -43054.7 125744 -41092.3 
239 1 43.4147 36.7204 22.1933 11.3412 -450521 -497584 814245 -241449 584989 -335246 
155 1 47.1634 35.1222 20.7105 8.91741 567395 50978.6 502504 -268512 229914 -320940 
243 1 45.8125 36.554 22.3372 9.50684 -329767 500339 150151 -314132 -84072.5 -237460 
157 1 49.7413 34.9841 20.7484 9.07953 817666 638140 631819 -288618 -119431 262827 
247 1 48.3366 36.7333 22.215 9.38294 594744 -632653 981945 -344221 144510 -225199 
162 1 40.4181 37.3338 20.6003 17.8152 389423 -32916.7 175402 -179268 827078 697601 
234 1 39.4707 38.8501 22.3289 0 -749531 -183635 297831 -4416.45 -55346.1 -205018 
236 1 41.8406 38.6865 22.2196 7.99854 -497621 492760 542936 433068 365403 -24338.3 
240 1 44.4699 38.862 22.1879 5.81881 47894.1 -120861 331653 -587360 -29425.8 -118162 
244 1 47.0037 38.8108 22.2528 5.82585 234312 -311852 -13496.2 191784 99001.4 230788 
248 1 49.6375 38.8536 22.3352 5.53869 -59763.6 -490954 -834676 19520.6 -69809.4 14363.9 
253 1 38.3541 41.0859 22.3052 0 -276322 40067.3 22196 -97207.1 -42792.5 -23970.8 
257 1 40.793 40.9415 22.2819 5.17714 -829942 -387651 -93216.1 -22800.4 380972 76644.8 
261 1 43.2528 41.0152 22.2641 6.32477 -720326 -309034 -384374 26246.8 -202717 6855.94 
265 1 45.7457 41.0698 22.2803 5.22001 -575204 -279871 -325067 72111.5 129250 -51180.6 
269 1 48.25 41.0122 22.3482 5.96198 -230799 -90081.4 -471072 -74584 -111571 -14063.2 
251 1 37.1131 43.3781 22.2091 0 -461258 79816.4 437483 -155019 -52612.1 133507 
254 1 39.5005 43.2579 22.2986 4.88058 -747832 -148661 138882 -439789 -26868.6 265.716 
258 1 41.9711 43.1539 22.3893 5.88911 -383743 -636751 149135 364463 145563 263519 
262 1 44.517 43.2584 22.3573 5.944 -205539 -241391 -30191.4 39693.2 -129495 45603.9 
266 1 47.0656 43.2546 22.2919 6.17693 -598887 -143187 -676320 52788.9 151726 -131220 
270 1 49.504 43.3179 22.4677 5.95007 -346073 -284800 -431454 94693 -80579.2 -4233.91 
275 1 35.8843 45.5334 22.3347 0 -724408 -357591 446900 -56313.6 -194959 75502.5 
279 1 38.2278 45.5727 22.3908 4.65514 -1.53804e+06 -452656 -143300 -280095 96387.5 -154176 
283 1 40.6263 45.4031 22.3633 5.77184 -1.12028e+06 -868929 -681684 107476 165463 -101690 
287 1 43.1665 45.3967 22.535 7.02644 44730.8 -177935 177799 51784.6 -396939 234679 
291 1 45.7207 45.4682 22.4159 5.74124 209223 -86734.3 -221886 28368.7 -195719 -26622.7 
295 1 48.3708 45.4576 22.3339 6.05027 -231542 -246607 -275044 210959 129065 8963.61 
273 1 34.5734 47.7366 22.1994 0 -466669 -28205.2 342673 -22210.1 -121261 308306 
276 1 36.9189 47.7274 22.4093 4.95141 -1.12788e+06 -598081 -246700 -175887 -122408 269358 
280 1 39.3633 47.6911 22.3588 5.68851 -550603 -988954 89509.4 -107585 202181 55114.1 
284 1 41.8909 47.6057 22.4619 6.57345 -125944 39456.3 -299814 37509.4 197637 -116060 
288 1 44.5581 47.6718 22.4686 5.73812 -119249 92636 64477.3 63723.8 -222439 -24353.8 
292 1 47.0253 47.6929 22.437 6.11553 -224254 132414 203860 -41099 7898.1 56876.3 
296 1 49.5868 47.7159 22.437 6.45904 -109330 154342 502367 69058.9 79334 5611.84 
380 1 48.2242 49.8979 26.7114 5.93679 -6751.7 32608 -196159 172931 -58032.9 113774 
301 1 40.578 49.8421 22.3624 6.58461 57767.1 28788.3 -148653 -349026 -125965 156048 
302 1 43.1697 49.8237 22.4402 6.08678 326477 413896 -81492.9 -66818.9 141504 57824.2 
303 1 45.7559 49.9271 22.4302 5.85522 22930.8 -87872.3 -99620.8 50776.9 -67264.1 297122 
304 1 48.2665 49.8893 22.4035 6.05145 58563.6 -70250.6 139089 -57418 47940.2 103680 
230 1 48.5386 34.3668 22.8104 0 245964 -387999 59863.1 -205120 184625 55704.6 
229 1 44.5722 35.9666 24.42 0 203631 -434766 891045 13648.7 659281 -200307 
231 1 47.0819 35.6514 24.3617 10.6077 1.14844e+06 973578 290887 -26383.2 -148689 32208 
233 1 49.7224 35.8768 24.4085 7.16709 782493 -26776.8 1.32209e+06 -213545 254677 -633673 
238 1 40.6893 38.1621 24.3772 17.6597 207915 29750 408858 13357.5 -116735 115711 
242 1 43.1976 37.9557 24.3225 8.04031 45989.9 226544 227603 539453 101241 -288709 
246 1 45.8 38.1017 24.3658 6.18434 49364.5 -357174 603683 -330296 201888 -175420 
250 1 48.3302 37.9268 24.383 4.62239 336295 810871 475814 439771 245528 122067 
235 1 39.3042 40.1951 24.3926 10.4437 30894.1 466924 -299753 149476 330148 -161062 
237 1 42.0067 40.2514 24.3703 6.05749 -69784 81027 188247 -199015 -162983 42635.1 
241 1 44.5423 40.1809 24.3873 5.50066 -243565 281515 103460 320108 55251.1 76081.9 
245 1 47.0197 40.2523 24.3766 5.63045 -406164 -114197 -61079.1 -289270 141565 28202.1 
249 1 49.5659 40.2354 24.4068 5.36329 -75655.9 171418 -639276 118551 161130 22215.1 
256 1 37.9499 42.418 24.3676 11.5428 802489 509796 707763 3380.89 272701 230212 
260 1 40.5541 42.3617 24.4187 4.84689 721058 611134 51641.7 -204289 -97144.1 -36888 
264 1 43.1957 42.4473 24.4644 6.36168 456431 188758 185171 -143352 -53141.8 -68746.4 
268 1 45.8136 42.4687 24.3788 5.95336 125942 33411.4 106666 -19493 -26014.9 7993 
272 1 48.3173 42.4854 24.4533 5.61445 -285120 -144737 -574254 9069.71 52447.2 288001 
252 1 36.6174 44.5817 24.4879 13.1631 415505 348438 26760.4 76844.6 -218613 86012.9 
255 1 39.1674 44.6401 24.445 4.19239 844322 519393 241877 507015 890460 103985 
259 1 41.776 44.6103 24.4775 5.382 767064 340995 -350033 41748.5 118980 231344 
263 1 44.4502 44.651 24.5397 5.89321 267072 45146.6 -797004 16188.1 -182451 161911 
267 1 47.032 44.6345 24.3979 5.96382 96976.7 -867.463 222392 -46534.1 -120538 -84335.3 
271 1 49.5565 44.7698 24.5026 6.27623 -14397.3 -151771 -214177 112983 17815.6 -149272 
278 1 35.4198 46.7855 24.4277 11.5522 487237 270252 301702 558556 453740 285403 
282 1 37.9668 46.8486 24.4816 4.74358 590100 213658 -720004 338741 -255177 23649.9 
286 1 40.5462 46.8823 24.4384 5.60802 544367 567795 -90688.6 153436 221537 16391.3 
290 1 43.1549 46.8948 24.5193 6.00499 475991 192726 -452086 93269.3 -179557 -66096 
294 1 45.7695 46.9052 24.5832 5.82137 231047 160233 -700878 62613.3 -150721 158625 
298 1 48.2935 46.9305 24.4929 6.34462 400828 150014 90194.5 27321.7 -25560.9 227802 
274 1 34.3936 49.0195 24.3849 0 -272637 474689 1.04992e+06 444649 81393.5 156424 
277 1 36.7784 49.1251 24.444 5.21046 -381838 507427 416576 549637 10205.1 -35238.4 
281 1 39.2861 49.0886 24.4203 5.51802 267403 527706 38373.5 77445.6 46689.7 70262.5 
285 1 41.8981 49.1346 24.4674 6.2244 379147 363718 -206072 -34533.4 117348 47158.4 
289 1 44.4469 49.1157 24.5856 6.12438 48168.2 -18494.9 -481401 69803.4 62131.5 240209 
293 1 46.9751 49.2019 24.5279 6.17694 139788 440998 348841 11882.7 -50488.7 2761.79 
297 1 49.5095 49.1638 24.5531 5.99664 219013 367163 164832 -173680 -62335.7 42041.8 
306 1 47.5821 34.5837 26.4211 0 -455921 88279.6 285811 -51031.8 -93703.6 226658 
308 1 49.9172 34.4097 26.553 29.8158 -1.26476e+06 -250281 801353 -377447 166981 -170648 
315 1 43.5238 36.6589 26.5796 0 92253.6 24948.8 634485 -128709 56153.9 -132587 
319 1 46.0385 36.5636 26.5164 6.42361 645473 388994 932875 135154 112078 -51698.2 
323 1 48.6637 36.7408 26.6223 5.01626 -184101 -824873 -66540.7 38310.9 99851.2 -172839 
310 1 39.4816 38.7988 26.599 0 356189 218846 369109 -29313.3 -219745 -55960.2 
312 1 42.0398 38.6283 26.4797 7.14599 555777 219004 289795 284399 -41011.5 -179644 
316 1 44.6049 38.8437 26.5246 5.90857 33073.5 -736897 452945 186705 -129178 -199388 
320 1 47.1516 38.7796 26.5125 5.47479 97313.2 -23073.8 218305 128609 -74146.9 74147.3 
324 1 49.6797 38.9665 26.549 4.94849 310065 -637537 538843 -181988 227341 346005 
329 1 38.3258 41.0681 26.4632 0 -217228 91517.3 -69574.8 -141820 101263 -38199.3 
333 1 40.7891 40.9511 26.5492 5.05002 -420319 247603 434882 25450.8 387319 281234 
337 1 43.242 40.8167 26.5262 5.59121 -250325 542976 -257507 390140 -205392 -47126.3 
341 1 45.8773 40.995 26.5302 6.04703 -239254 18502.4 541840 -420715 17409.5 45225.1 
345 1 48.3188 41.0918 26.4627 5.7809 -743925 -385492 -171820 68132.5 43988.9 161543 
327 1 37.0712 43.3349 26.6426 0 -51304 -42943.2 -43823.4 -180694 -98433.7 16810.6 
330 1 39.5168 43.2285 26.542 4.7527 -523906 -533007 -1209.02 -95223.7 857050 305773 
334 1 41.9455 43.2171 26.4938 5.89606 -359801 474876 -87601.2 -148056 -78861.6 112317 
338 1 44.4687 43.2489 26.5445 6.24429 -26931 486816 -219815 -65698.8 -22553.9 392346 
342 1 46.9712 43.2159 26.6181 6.16821 -42825.6 -68159.3 187798 -9342.8 184745 -56697.6 
346 1 49.5613 43.2569 26.5567 6.16151 74928.7 -293609 -215794 103169 14591.5 -88009.1 
351 1 35.7768 45.5239 26.5895 0 -83657.2 -96410.7 -189397 -59559.3 111505 -166326 
355 1 38.2202 45.4826 26.4795 4.80391 -1.12134e+06 -670905 -515160 270025 -205542 -311353 
359 1 40.6264 45.4261 26.5538 5.77779 -491538 73099.9 457134 256349 740859 195623 
363 1 43.2062 45.4723 26.5509 5.91574 46000.2 98703.8 -63842.8 85204 147924 38182.9 
367 1 45.7231 45.4507 26.5352 6.32446 -182585 -597745 -310551 -258486 -309646 201013 
371 1 48.2496 45.5106 26.5505 5.93162 243559 -52172.7 -380299 111977 78763.9 -86172.9 
352 1 36.8867 47.7251 26.5508 5.01965 -167875 33673.4 350614 165216 506374 240614 
356 1 39.4015 47.7333 26.5275 5.44039 -296244 -28210.1 245922 -343358 -30055.1 -160589 
360 1 41.8904 47.7393 26.5714 5.70383 -455157 -186842 44825.1 109816 91767.8 -64419.5 
364 1 44.3981 47.7337 26.5452 5.78603 -615583 -706624 -421415 188117 -22205.7 160492 
368 1 46.8913 47.6092 26.6573 5.85867 -149853 -20959.3 -192203 -56180.8 -244025 -20518 
372 1 49.5509 47.686 26.6251 6.67389 408655 131206 104136 -280932 134791 181775 
349 1 34.4496 47.7575 26.5761 0 -49545 432433 459270 -4693.18 -314.337 -56218.2 
379 1 45.6941 49.9036 26.6977 6.31444 -265880 -61640.9 76221.5 -317413 25271.3 38938.5 
378 1 43.1709 49.843 26.6564 6.12902 -387797 -387032 -209924 143452 192601 17238.6 
227 1 45.7268 49.9906 18.2711 3.43044 113965 426757 -398623 -257734 -428902 -96406.8 
225 1 40.6552 49.8388 18.3279 4.0699 -1.08667e+06 -480139 -1.06282e+06 -396791 -44452.8 95937.7 
223 1 35.5768 49.9723 18.2776 7.01291 -604726 -608785 -711759 555786 -381425 227884 
305 1 44.7546 35.9779 28.6552 0 317622 -381521 240225 -285160 -5077.13 -59723.8 
307 1 47.2911 35.7944 28.6962 9.54989 742369 572406 343969 -198263 191436 222092 
309 1 49.8683 35.7386 28.5934 6.81829 1.02121e+06 1.07526e+06 1.10264e+06 -411012 -262747 284099 
314 1 40.6171 38.1681 28.6687 0 278873 -90952.7 311322 56923.2 -242916 -24416.1 
318 1 43.1659 38.0103 28.7285 6.76549 278562 532968 -89161 272369 146173 -337700 
322 1 45.8059 38.0935 28.661 5.2918 -137667 -207183 375659 -628622 105104 -132712 
326 1 48.3038 38.0493 28.6348 4.89871 283635 656472 -565753 -173823 67007.3 -147791 
311 1 39.2162 40.2282 28.6303 10.0302 -68728.5 -108568 -440157 548331 636192 102590 
313 1 41.9001 40.2486 28.6799 5.19207 -198908 -326358 -377398 -133511 35772.9 -109578 
317 1 44.4533 40.2459 28.5976 5.05633 279715 157889 -396633 583945 -99424.6 -7994.44 
321 1 47.1001 40.269 28.6343 6.1795 303432 -7004.13 240469 -293121 -71222.3 35841.6 
325 1 49.6155 40.2898 28.6583 5.65772 -100257 175770 50462.3 21378.7 63278.9 13051.1 
332 1 38.0798 42.3757 28.6486 10.5573 -27415.5 -328602 -194331 231026 697561 563805 
336 1 40.5868 42.3812 28.698 5.09421 450081 227119 246748 333689 -109034 64578 