ITEM: TIMESTEP
70000
ITEM: NUMBER OF ATOMS
5538
ITEM: BOX BOUNDS pp pp pp
0.102528 99.8975
0.375086 99.6249
-1.58502 101.585
ITEM: ATOMS id type x y z c_csym c_2[1] c_2[2] c_2[3] c_2[4] c_2[5] c_2[6] 
4 1 49.2718 37.3611 7.54926 0 -609152 -154240 630820 600364 -375754 -578476 
10 1 44.602 40.5988 8.16639 0 517481 -110993 -613413 105867 -218867 -465516 
47 1 39.088 44.7859 7.70765 0 50323.5 345059 141761 44279.2 -51453.5 11989 
60 1 44.3694 48.0856 8.05877 0 -236985 -553614 -404506 -42251.3 -67269.6 -124519 
5 1 48.6487 36.427 9.91709 0 -714752 -496395 1.34136e+06 729652 50282.8 -560809 
2 1 47.739 38.4162 9.03292 13.6293 -242269 -400837 -865642 499757 40670 -137374 
6 1 42.2981 39.8628 8.83216 0 301716 -130662 166947 10599.4 92840.6 -40092.8 
15 1 45.4771 39.0981 9.83974 12.4453 252983 184170 -141516 -88541.8 -555513 -386834 
1 1 47.0352 40.8755 8.86178 15.0053 740413 734649 -121340 282485 12870.9 -46008.2 
25 1 38.4251 42.7547 8.78756 0 -116987 535824 -315031 -616479 -684628 -170060 
7 1 40.3819 41.4931 9.12253 0 -180008 -314044 272399 23734.1 -236471 196746 
9 1 42.7781 42.2024 9.03279 14.3808 1.38785e+06 89264.2 456672 -807497 -284014 39478.3 
11 1 45.377 42.7716 8.7492 0 238359 499943 -226037 546107 359714 478336 
14 1 47.5858 43.0564 9.85757 9.24688 -375336 -489471 448030 584932 -452866 -164621 
2854 1 49.5106 41.5863 9.31717 14.6361 193066 340811 -271403 605061 -114640 208601 
24 1 36.5835 44.315 9.74044 0 613756 318858 280554 -579132 -170773 559324 
32 1 40.7569 43.8867 9.17828 0 493513 1.10857e+06 377097 -1.1864e+06 -161838 248933 
31 1 41.9307 45.7733 10.2897 10.1166 618124 145184 85438.3 -438269 -318696 372444 
35 1 43.8848 44.0235 10.2992 8.33837 -135945 1.14483e+06 -41722.4 -1.2696e+06 551468 -178481 
39 1 46.1921 45.0235 9.85424 10.0368 -235026 1.03261e+06 466909 1.02694e+06 -182657 316409 
2853 1 49.6833 44.1723 9.31783 15.8935 127573 372360 130265 118034 29154.6 139365 
50 1 37.3329 46.1844 8.59693 0 99372.8 -402740 -272284 -265261 94309.8 -33420.1 
23 1 39.5141 46.1407 9.80078 10.3501 559798 1.16138e+06 -255934 110374 159843 131548 
63 1 44.2148 46.3742 9.77626 8.36877 -1.92194e+06 -1.31757e+06 137952 124680 235790 545582 
66 1 46.2091 47.5747 9.62308 12.4985 392890 845403 -158190 -1.22118e+06 142877 -59202.9 
43 1 48.4996 46.1924 9.9494 12.6536 917177 434529 -464037 -496083 115415 -230609 
45 1 37.8916 47.9546 10.0875 12.822 -597475 -424620 -246359 16849.2 61852.8 -547557 
52 1 40.3949 48.4836 10.4386 6.82692 -1.28891e+06 399118 106973 619662 445335 -119573 
62 1 42.3904 47.8853 9.41417 13.8085 -1.38624e+06 -1.06518e+06 183404 496084 544842 237020 
61 1 44.6006 49.5495 9.85862 11.6163 529312 -71831.2 -684229 -508443 -99553.4 -425227 
2876 1 49.6512 48.2895 10.1626 17.1061 251301 579940 -476516 -197843 809412 -44361.6 
19 1 45.762 35.8256 12.7 0 382586 -202501 -183863 -53191.8 188913 210379 
22 1 48.2225 35.7084 12.2543 16.9631 272164 -75871.4 -134437 -220318 -576048 -87749.7 
18 1 44.7358 37.9492 12.0275 10.778 -224698 151669 617127 79695.2 -370895 256202 
3 1 46.5502 37.0672 10.7439 18.4858 -1.12955e+06 -184856 -340942 269086 263575 -56554.4 
21 1 47.7489 38.1292 12.4162 6.14379 -736558 -467941 -951454 80460 -223992 488655 
2837 1 49.8156 38.1324 11.1473 5.71402 -373190 245403 -347763 -344223 63997 481486 
29 1 40.8148 39.7525 10.7337 0 -119142 -79856.1 -379263 108514 66728.5 167208 
8 1 43.2664 39.5741 11.0606 9.73746 221527 22854.4 708227 513493 -126493 -8186.72 
12 1 41.963 41.0164 12.497 8.59161 -627088 470677 -399120 379200 -254645 495037 
13 1 46.1398 39.9008 11.8994 4.32092 -129369 -257958 -942777 -419792 124263 11382.6 
16 1 48.2243 39.9342 10.7696 7.02826 -525285 -408703 -1.34431e+06 10294.4 -840404 -175504 
41 1 49.2983 40.1007 12.8513 6.22632 -1.29152e+06 -297863 -1.60209e+06 -545103 -867494 390557 
26 1 39.8932 41.8999 11.5273 11.9733 -378776 172907 644586 -361243 -449780 218131 
30 1 41.8879 43.09 11.2594 7.12869 -696674 -611039 824890 -514004 124180 296815 
33 1 44.6917 41.4936 10.6146 8.87413 546277 1.86524e+06 -1.05327e+06 -129711 1.09417e+06 -529553 
36 1 43.937 42.5461 12.5669 7.42218 442930 1.07237e+06 -441045 -137664 -318700 -423940 
40 1 46.5488 42.3593 12.1832 7.98736 909520 351373 1.25816e+06 223466 -427.362 139641 
44 1 48.9767 42.1578 11.6968 9.4709 -295849 -936749 -173635 196463 -73965 431082 
28 1 38.8536 43.9865 10.7235 8.1625 -406603 236187 -921015 -147627 -582014 -793231 
51 1 37.2297 45.1963 12.047 8.47258 -341676 50701.1 -18433.2 200612 136161 157441 
27 1 40.4014 44.7361 12.2643 7.49392 -157075 -56533.3 -102209 -480914 -729109 -1.10871e+06 
59 1 42.9386 45.1399 12.3837 5.39094 -141479 582766 -1.3241e+06 33251.4 -672052 11336.2 
64 1 45.4736 44.5562 12.1745 4.13812 610822 -379432 281938 69.4407 192338 -558452 
38 1 47.96 44.4785 11.8296 4.96097 -771805 -344402 937357 332268 524199 -54609.7 
48 1 35.8965 46.5605 10.5869 0 49805.9 467150 145146 194210 -74720.8 144916 
49 1 34.9444 45.8721 12.7784 0 147683 -218092 175768 108418 25612.6 -187636 
54 1 39.0404 46.8528 12.0108 10.4813 463261 529823 -537910 -187275 150819 298270 
58 1 41.5177 47.1885 12.2466 9.49168 38020 -556253 539190 -347010 404953 56701.7 
75 1 44.6057 47.017 12.0101 7.00883 -512120 469779 84663.5 730098 199571 107583 
70 1 46.9764 46.6892 11.8714 5.62021 -1.15098e+06 -404005 210217 248938 139056 -324168 
68 1 49.5791 46.5635 12.0303 5.09753 -1.26482e+06 -1.00019e+06 76533.3 771112 267611 -260901 
71 1 36.4004 48.7512 11.7621 10.7448 387738 399793 97956.3 294134 363193 -463205 
53 1 38.7996 49.3476 12.2193 5.82256 354462 1.38858e+06 195718 -50179.4 619241 -625380 
56 1 43.1256 48.7762 11.5697 8.56887 -551459 -313094 219898 -249005 -94410.1 578768 
65 1 46.1619 49.0341 11.6086 10.1145 48950.3 434079 309372 330398 -568159 -45751.9 
76 1 48.4837 48.5998 12.1353 9.47311 -684891 -1.42528e+06 -1.95205e+06 1.00486e+06 226480 120825 
90 1 43.572 36.4215 13.7139 0 253497 -157666 327610 107095 -121981 -161835 
94 1 45.3964 35.2884 15.0305 16.4386 -724866 94757 55706.2 40202.7 88119.7 -81154 
98 1 47.4827 36.5156 14.4432 5.10122 -707045 -415850 -485900 -283971 553423 268445 
81 1 49.3843 35.2955 15.2992 12.0178 220244 347758 -21521.5 -267585 -169904 -192293 
20 1 49.8222 36.9767 13.4151 8.29314 -1.44046e+06 40067 -101300 686466 -533745 -209286 
84 1 41.6666 37.2227 15.4109 11.2037 -648085 -35035.3 635890 221054 52442.1 209566 
88 1 42.5551 38.6091 13.429 9.37113 478339 -197853 656278 -339382 -214195 -6978.15 
93 1 45.9421 38.4194 14.046 5.52139 733051 445686 -50788.5 -56202.2 68043.9 136328 
97 1 48.5655 38.6171 14.6575 8.44303 132985 -1.07469e+06 -936577 -424091 -164571 -268405 
105 1 38.2934 40.2094 15.275 0 597126 45177.6 188484 85054.5 -323546 -266943 
85 1 40.5635 39.2718 14.7183 12.3344 131686 233136 171111 -74839.7 3376.78 -88204.9 
112 1 42.3874 40.8094 14.8818 8.75878 -1.06443e+06 622550 -255803 169469 -567550 68751.2 
89 1 44.2845 40.2396 13.4251 7.9515 -816400 563409 854467 -699899 93125.9 417727 
17 1 47.2773 40.7017 13.9232 8.7431 -221048 188375 -619268 421848 251091 -9372.27 
376 1 37.9592 49.9073 26.5088 5.99555 22907.3 -230849 -292155 -211653 -77827.8 172996 
108 1 40.0536 41.5907 13.9759 9.05959 -237491 568256 -7091.29 371364 -553713 -157872 
107 1 41.9084 43.3401 13.9927 7.28048 263820 1.69687e+06 1.77589e+06 -654867 763414 175926 
37 1 45.4185 42.1595 14.433 8.26958 38049 -64389.4 -41730.1 17637.8 -703283 -205475 
120 1 49.0834 42.3496 14.1909 7.16237 907099 1.71925e+06 1.12063e+06 -119449 -265557 69859.9 
121 1 34.0983 45.2488 14.9391 0 484665 45220.3 88539.1 -235209 -291588 99230.9 
123 1 36.1129 43.9886 13.817 0 959563 111623 187350 -447133 -341265 259235 
103 1 38.8482 45.5216 14.0882 9.71206 -1.28683e+06 84844.9 -806842 355066 70507.5 188497 
111 1 44.0807 44.3474 14.3287 5.35251 -860385 -397743 -703842 -233512 -632347 430141 
34 1 47.1511 44.0229 14.1627 5.34799 741862 707445 1.22257e+06 -99971.3 179047 -101008 
67 1 49.4741 44.9819 13.9654 9.45231 562334 905536 -41712.5 580914 922477 -18566 
130 1 37.0645 47.1364 13.5991 8.27278 5993.97 133401 1.32907e+06 150562 244362 -280147 
55 1 41.1782 45.8144 14.2636 6.78563 -1.10953e+06 -554296 -1.24234e+06 193054 -302570 -245292 
138 1 43.3451 46.8342 14.1281 8.38829 -298636 -1.01364e+06 -651495 78147.7 158584 68269.5 
142 1 45.7704 46.0645 14.0213 5.66715 337392 -771212 -993745 -48319 -439861 -668114 
140 1 46.044 47.8113 15.5948 10.3189 -766241 -2.03802e+06 106484 1.01345e+06 1.10108e+06 -1.29803e+06 
146 1 48.192 47.0559 14.1062 6.66165 365792 282274 1200.89 538430 72955.2 -30327.7 
126 1 34.8496 48.0202 13.6936 0 110517 -438538 209483 411627 -594864 141125 
129 1 37.8606 49.2022 14.4094 10.3016 -669302 -109245 -896760 318322 -222509 -359033 
134 1 39.9849 47.8993 14.132 7.67464 -411160 -448899 580022 422151 667875 -658849 
133 1 42.1878 48.9116 13.9271 7.29941 -762610 -1.08534e+06 331156 306956 102084 159317 
137 1 44.5685 48.8756 13.6824 7.98991 -172610 -293313 1.11721e+06 -314146 633557 -371918 
141 1 46.9975 49.4332 13.935 8.47123 -238782 149442 648322 -553514 -1027.16 -508862 
69 1 49.6465 49.1793 14.1519 5.17959 -113637 1.00263e+06 -868012 -631418 -218296 -4392.45 
77 1 41.76 34.9169 17.8743 0 292218 -132030 348622 -270198 180644 -82462.4 
79 1 45.0888 34.1338 17.3404 12.8463 211793 411922 526594 -382617 -180036 -308430 
78 1 47.0832 32.5335 17.4363 0 206233 385410 -39074.7 -131612 -75676 -137707 
80 1 49.358 33.3999 16.7281 0 -306488 -34159.9 -450410 -63376.9 756074 127304 
82 1 40.3449 36.8445 17.3337 16.0764 67467.9 -220865 -155539 -472204 -513561 -208987 
87 1 43.352 35.72 16.2171 11.0797 -158166 34182.9 -179778 265199 476432 -339311 
95 1 47.2138 35.0063 16.6273 8.64869 -243695 404649 450701 -180751 -364315 -43731.3 
101 1 37.2902 39.0979 17.3146 0 -44308.8 182678 287122 -15008.7 86275.4 -258667 
83 1 39.7326 39.158 16.9932 6.80093 -115224 -50334.6 -358876 107411 -281994 159146 
109 1 42.264 39.291 16.7383 6.53595 344567 706889 81491.9 -158349 143064 516047 
113 1 44.0091 38.0585 15.517 10.5072 -379204 295138 348329 34047.4 201901 28046.8 
164 1 44.6322 38.7734 17.8989 8.61194 390849 223793 806439 -110541 20845.4 275921 
92 1 46.1185 37.2508 16.3588 8.12876 -65582.1 260092 53478.6 46416 197164 147097 
96 1 48.6326 37.3059 16.6245 8.70175 667769 93166.1 85551.8 -622000 -402998 509334 
104 1 36.4136 41.3433 16.5521 0 274285 486095 -65906.1 -260595 -78724.8 -192916 
116 1 44.5045 40.451 15.9561 9.86183 -768984 73251.6 307363 136849 -66994.3 -1214.81 
117 1 46.7532 39.6682 16.0161 7.61235 -437425 -325465 -1.08653e+06 -123574 -65846.6 454990 
2924 1 49.0848 40.4303 16.0979 7.86107 -797079 -796691 138088 -9057.96 -359617 -943439 
102 1 38.4211 42.5753 15.7201 8.83576 237143 145550 1.50382e+06 -32371 -105348 -528262 
106 1 40.8807 42.4251 16.089 6.8099 199424 17304.2 -131080 1254.74 1560.07 -343195 
110 1 43.4751 42.6824 16.1448 5.21525 223279 -587528 454551 -263269 125012 -147979 
114 1 47.2601 42.0709 16.0966 5.35049 -143403 -335609 212701 -30854.4 -205972 -667633 
99 1 35.3338 43.5962 16.172 0 -562877 499255 174024 -336738 119385 284287 
127 1 37.3311 44.7369 15.7433 6.59181 -823561 -440869 -47721.4 -339172 56692.8 17071.8 
203 1 38.196 45.45 17.903 6.51478 457064 106066 728137 -107910 -26211.1 39168.4 
131 1 39.8667 44.6123 16.1461 4.53346 -421931 -501236 -1.02297e+06 33211.9 -183218 366654 
135 1 42.317 44.7951 16.2282 5.24865 341379 669354 70799.3 -318404 -175245 504246 
115 1 45.5775 43.8741 16.2256 4.27742 -855643 -791004 -1.16936e+06 -637953 156821 -139333 
118 1 48.7715 44.0157 16.1544 3.5487 -182248 -362394 682771 284088 -891687 -199049 
122 1 33.6319 47.4746 15.7713 0 -214766 13678.1 278763 32660.9 -149725 14164.4 
197 1 34.3247 47.7584 18.078 0 475292 1.06511e+06 -412299 -476567 -56469.1 167344 
124 1 35.8929 46.6599 15.6964 8.26962 -447891 -615791 -195009 457481 -497602 277270 
200 1 36.83 47.7306 17.9197 4.42606 764596 398476 1.62135e+06 10598.5 526458 -180040 
128 1 38.3058 47.089 15.9712 5.32066 -273489 -298852 1.22324e+06 -193269 365309 -138271 
132 1 40.7834 46.9888 16.3208 6.38464 271189 774711 -1.3157e+06 -763130 -109491 -197175 
139 1 44.3784 46.1269 16.2348 5.27755 1.20248e+06 247187 -588650 -129785 -91314.9 216634 
143 1 47.0573 45.7019 16.1391 6.10411 535117 -732005 306399 200530 -547563 1.31812e+06 
216 1 46.9283 47.6741 17.9842 1.76665 228828 1.03463e+06 2.5016e+06 -30178 42282.4 768920 
144 1 49.6009 46.4394 15.9717 1.53179 1.02848e+06 184062 308138 182778 -470327 -324790 
147 1 33.7094 49.7806 16.642 20.6295 -386700 1.34632e+06 354819 1.06837e+06 47528.2 -130332 
125 1 35.7576 49.0251 15.8695 6.13198 -796803 1.24878e+06 796097 -471040 447375 -779178 
149 1 39.4491 49.2464 16.2988 6.88447 -888032 -248717 -1.72676e+06 -300894 -270018 -74601.6 
136 1 42.8677 48.0916 16.1329 5.74526 -326153 381710 306612 -267428 246326 450178 
151 1 44.735 49.5021 16.191 5.42879 -1.50427e+06 -1.76033e+06 48523.7 1.59162e+06 165060 -1.08965e+06 
145 1 48.2719 48.638 16.0522 1.94962 51737.8 48983.1 -276349 -505213 218576 -142549 
91 1 43.5609 33.8591 19.2574 0 206688 -165486 298258 -277953 -8314.49 -255349 
154 1 46.016 33.4806 19.4393 0 163228 -87780.6 -372156 76892.9 -241455 -63587.3 
156 1 48.3891 34.2119 18.7476 9.62934 709237 153377 -604955 215072 186919 -356752 
86 1 42.5248 35.9713 20.0164 13.7077 154849 -471389 -256006 -426910 -286585 115014 
163 1 42.6345 37.2213 17.9299 8.9382 -841343 -900192 -293101 249283 582204 -463313 
167 1 44.888 36.3287 18.1981 8.18259 -44233 -197335 307281 176112 552912 327444 
171 1 47.2774 36.4887 18.6436 7.3279 -31677.7 -477765 850936 30262.6 89620.7 -91410.5 
2980 1 49.7592 36.4668 18.7761 9.43189 -933606 453912 687177 -3464.64 -236156 -3400.86 
158 1 38.6933 38.0389 19.0562 0 396176 244762 615874 -331623 257414 74605.3 
160 1 41.1034 38.6864 18.9534 6.36447 -486140 -1.59098e+06 -1.31384e+06 -498524 -199762 -683731 
166 1 43.358 38.1855 20.0933 7.17514 89143.9 -471010 290578 -434369 99463.7 -983842 
170 1 45.7807 37.8817 20.1471 5.58415 323652 1.05912e+06 1.14479e+06 473191 641044 384009 
168 1 47.0769 38.8161 18.1842 6.39086 149285 -576038 -744196 -118478 -354055 726186 
172 1 49.5483 38.9897 18.1989 7.30781 25607.2 -207464 -19878.3 -28456.7 140502 -745910 
174 1 48.3293 38.0552 20.2915 6.85133 276045 179768 -63822.1 -23567.2 -212681 132636 
177 1 38.4964 41.1551 17.9902 7.32309 -158530 -150248 799177 -297065 68747.5 -422271 
181 1 40.9018 41.0599 18.1682 9.3097 -446530 -234057 -143233 -455556 64859.6 514670 
159 1 39.3721 40.1174 20.1624 8.24131 735579 725861 809720 80712.7 1.09502e+06 99668.2 
185 1 43.3798 41.028 18.1448 7.19789 -599593 -26463 71192 120317 -120265 -41041.2 
161 1 42.0382 40.3654 20.2421 6.51949 -293283 -1.06597e+06 -823954 -601378 -803219 -504130 
165 1 44.6515 40.2713 20.1265 6.11598 -265234 -99161.8 442330 -281590 -152931 146559 
189 1 45.8508 41.074 17.9805 3.77933 -531980 281586 482812 -12310 -266901 41504 
169 1 47.0866 40.2514 20.2255 5.91733 -306157 188925 -106922 292552 152306 -30369.2 
193 1 48.2973 41.1072 18.2965 3.92454 -76445.6 -112081 -371512 309220 138133 -130870 
173 1 49.6504 40.2658 20.3229 5.65277 -325731 99622 -1.04765e+06 115888 228990 -131961 
175 1 37.0487 43.2577 17.9566 8.64867 5360.53 -352295 -209353 9622.96 -83176.2 -597325 
180 1 38.0798 42.375 20.0667 10.8482 190213 455381 148065 -24876.9 548751 407924 
178 1 39.5572 43.3143 18.0592 4.89785 -248699 -749596 -1.0555e+06 -525491 637243 745424 
184 1 40.5929 42.4286 20.2823 4.68305 690647 459232 464954 329635 209943 -320138 
182 1 42.1336 43.2277 18.1569 6.14723 -233427 -513963 -31247.5 27224.7 -133054 -12919.7 
188 1 43.2455 42.4482 20.3049 5.64903 203726 -956705 -286366 -678225 -176646 162805 
186 1 44.631 43.2422 18.2667 3.9235 -709343 -193926 -1.09302e+06 -374252 101460 306567 
190 1 47.1488 43.3574 18.2136 0.702645 227355 -531081 738453 240457 -842964 -468204 
192 1 45.8842 42.4406 20.2481 5.68226 -343134 -222415 6418.32 51636.2 -138613 179695 
194 1 49.7008 43.2736 18.3309 1.72849 -651038 357551 -584367 226082 57063.2 80889.2 
196 1 48.3515 42.5327 20.3711 5.96672 -287775 90372.1 -425702 -25868 98721.1 -41517.9 
199 1 35.6646 45.4799 17.7977 9.42524 695957 1.28367e+06 241570 -526479 1104.63 207723 
176 1 36.7141 44.5068 19.9506 11.8061 510792 336791 134526 196932 36594.2 -505576 
179 1 39.2235 44.643 20.2272 4.57109 710049 326714 739848 332632 811616 -47140.4 
207 1 40.828 45.4504 18.2769 5.35825 -303955 -832881 -816838 -282381 -430371 -32766.8 
211 1 43.3301 45.436 18.4051 4.90069 -1.21893e+06 -33740.7 -875185 -321185 -44620.5 67048.8 
183 1 41.8433 44.6124 20.3366 4.86823 301585 138016 -813548 110254 -80842.6 56480.3 
187 1 44.4718 44.5793 20.4339 5.47757 94293.9 -592499 63547.4 40278.6 -733287 15671.2 
215 1 45.7193 45.4703 18.1984 0.820689 -1.05366e+06 -1.12132e+06 -177714 95675.1 -382241 -728948 
191 1 47.0035 44.7305 20.3825 5.67835 226961 -98183.4 18708.7 212983 170722 -136994 
219 1 48.3451 45.5516 18.2326 0.568165 -73724.7 197924 528182 -71680.8 -422456 47812.7 
195 1 49.5767 44.8415 20.3773 5.7306 131042 -148873 -103891 -72863.6 -185517 -74260.4 
202 1 35.3753 46.6372 19.9804 12.2398 736427 338619 -332360 429014 -210277 250976 
206 1 37.9652 46.8217 20.226 4.88194 862517 538482 765919 62430.6 59963.5 61179 
204 1 39.3921 47.6464 18.3113 6.75967 -288246 -736514 -307413 8684.75 174704 74143.8 
210 1 40.5972 46.8085 20.3825 5.59459 190531 -30308.4 -651157 248703 158030 -6233.3 
208 1 41.9271 47.6493 18.4154 5.22916 -377261 -616063 -718278 -428309 -129746 -218509 
214 1 43.1868 46.8414 20.4142 5.83708 114403 197705 -544411 -83224.4 -123486 -98514.7 
212 1 44.4476 47.6835 18.1626 2.61103 -367576 -410844 158725 315304 -51082 -750243 
218 1 45.66 46.8267 20.2131 5.51205 212768 -275440 357837 448869 -281506 -382804 
220 1 49.4663 47.7826 18.1292 0.307466 224898 70705.3 584402 -21272 -26623.8 -60087.7 
222 1 48.2379 47.0353 20.3601 5.9776 108170 -291605 765185 301035 200935 -269555 
198 1 34.3779 49.0365 20.1545 17.746 -605224 74736.1 37425.4 143160 36463 94673.7 
201 1 36.7204 48.9899 20.2729 4.50692 -644209 1.06055e+06 172379 244677 -154316 176047 
300 1 38.0637 49.8597 22.3755 5.53066 164507 -267209 -520375 -284619 242141 -119191 
224 1 38.2599 49.8394 18.3568 4.19104 -962693 455089 -1.25846e+06 332334 -85362.7 159674 
205 1 39.2751 49.0301 20.4745 5.75604 82075.6 138363 -788854 270597 -43953.5 258252 
225 1 40.6692 49.7585 18.2834 3.67628 -1.46391e+06 -403784 -721031 -365635 -511796 34146.9 
209 1 41.8065 49.1569 20.3685 5.29699 313791 65571 -763309 -60880.9 -97271.7 -199136 
226 1 43.19 49.8066 18.2458 3.15183 -958129 -478025 812957 535613 104787 219677 
213 1 44.439 49.0148 20.2744 5.77799 547543 213137 -147721 100231 37264.2 74258 
217 1 47.0434 49.1021 20.2934 5.20509 -256995 -258126 164004 466382 -210676 357305 
379 1 45.7263 49.8736 26.5704 6.14144 108510 -102786 -114230 72880.5 73747 -44468.2 
380 1 48.2672 49.8497 26.6054 5.48047 -88772.1 -375709 -602650 -145838 -86711 4921.72 
221 1 49.5404 49.2414 20.3074 6.40691 -442707 -55699.6 286163 169206 93575.2 64958.6 
230 1 48.6064 34.2645 22.893 0 256309 -214429 617873 -327826 85767.9 -197277 
153 1 44.9035 35.4817 20.3976 10.9215 -676952 597.246 -303066 37336.2 -196321 -249191 
239 1 43.496 36.4953 22.1658 13.1434 274799 685915 886602 -304431 -45097.7 -623651 
155 1 47.2462 35.0836 20.7675 8.80687 -386310 -224570 563670 -187923 340833 -1.03937e+06 
243 1 46.0721 36.5502 22.2997 7.66279 65335.4 -409679 113875 80609.7 160076 -372647 
157 1 49.8169 34.9508 20.714 8.54726 -76532.3 343767 198306 -74557.5 -433121 174901 
247 1 48.5323 36.6116 22.2552 9.32023 -467639 -797354 -282108 -223713 -137754 349885 
162 1 40.4968 37.2384 20.6747 18.6829 1.04235e+06 343640 232517 -266388 337911 338386 
234 1 39.533 38.7902 22.2485 0 16374.4 -210106 -104235 -33897.8 -51057.8 -167710 
236 1 42.0561 38.6221 22.0894 7.78126 377471 964312 381479 150197 197146 -30615.5 
240 1 44.5673 38.7864 22.2801 5.7389 -263628 -99624.2 44389.9 305619 -126397 107989 
244 1 47.0656 38.7742 22.3831 6.23538 -201778 -160090 -6081.85 131292 873990 444207 
248 1 49.5803 38.847 22.4257 6.13887 -85808.4 -1.03859e+06 -385443 -143340 -190713 342483 
253 1 38.3704 41.0547 22.2045 0 -508681 -34097.2 -294010 -356040 10503.2 -89874.5 
257 1 40.8554 40.9163 22.3711 5.1964 -322308 -22066 787556 71394.4 735634 30007.7 
261 1 43.3353 40.9383 22.271 5.59715 -290893 121949 -39519.1 90853 -466639 9576.78 
265 1 45.8539 41.0144 22.3739 5.89342 -373285 -223861 -500143 160488 -43837.3 149939 
269 1 48.3942 41.0109 22.3409 6.06423 -397598 -87851.5 -522956 274594 238842 138223 
251 1 37.056 43.3093 22.19 0 -208533 220601 521522 -424194 4637 -143105 
254 1 39.5075 43.1485 22.3044 4.67335 -734716 -527636 182397 158171 354567 85004.2 
258 1 41.9762 43.1765 22.4627 5.92915 -231056 -315252 205144 116831 42595.5 112178 
262 1 44.5719 43.1445 22.3509 5.96663 118358 -14285.6 -340558 68601.9 -222238 410143 
266 1 47.0822 43.2646 22.4216 5.88799 -292233 -266042 -724009 -140153 135461 113329 
270 1 49.6274 43.3413 22.4235 6.19952 -131855 122385 -318677 3410.86 120795 -61273.3 
275 1 35.8519 45.5276 22.1134 0 -401163 -193773 407355 -25092.4 -69359 175951 
279 1 38.232 45.4153 22.2681 4.62056 -778207 -122276 -227007 -467411 249335 -120428 
283 1 40.7509 45.3524 22.3819 5.25083 -425384 -630640 468458 531090 539033 139345 
287 1 43.1793 45.4144 22.4591 6.32136 -223910 22477.2 -293975 -155471 -216979 105982 
291 1 45.8152 45.52 22.4136 5.48652 -192953 -4101.38 -167461 113265 84288.3 -153585 
295 1 48.2912 45.4523 22.4904 6.34878 -276918 -215458 -264897 -30293.5 88407 -63880.4 
273 1 34.5604 47.682 22.1479 0 -222030 47769.3 516958 -35807.5 -70693.7 318195 
276 1 36.9584 47.7286 22.4094 5.11805 -1.01635e+06 -647838 -552744 -302156 226180 206912 
280 1 39.3293 47.5935 22.3637 6.48377 -1.02535e+06 -462540 -887736 44900.8 106472 310519 
284 1 41.8745 47.6289 22.4451 6.40767 -363985 -267366 -270988 -112472 166474 80095 
288 1 44.4407 47.6388 22.4419 5.97819 -200064 -368107 -117082 175739 -147769 -61444.3 
292 1 46.9549 47.7103 22.4186 5.93976 60964.2 -389991 28053 -17345.7 75311.4 -90865 
296 1 49.5604 47.6734 22.4245 5.53244 127435 351933 -484307 33086.8 -6796.22 -187966 
378 1 43.0643 49.8708 26.6479 6.40665 135359 -35643.4 -176728 -327628 -115887 -70509.4 
223 1 35.7715 49.9829 18.1697 4.26821 3046.51 -604133 -107718 214719 -275555 150714 
301 1 40.6971 49.8686 22.5112 5.41418 160691 38540.1 -465874 54829.1 72467.2 160877 
302 1 43.2182 49.7662 22.4206 5.60653 -299984 -186992 38046.6 -7890.76 -211300 138320 
303 1 45.7284 49.878 22.432 6.45134 -784063 -531660 8445.17 -19242.9 -18009.5 -16234.4 
304 1 48.1691 49.9522 22.3874 5.01266 -389409 -176002 -365593 -115216 16104.1 -118890 
229 1 44.7296 36.007 24.3428 0 71209.2 -223127 119624 -14439.2 212469 -75767.7 
231 1 47.2482 35.7384 24.4181 8.80841 441154 1.32363e+06 265217 -437907 268913 -83535.7 
233 1 49.8079 35.7671 24.3956 5.33248 -277837 662012 -17785.7 -66883.2 -240905 -325639 
238 1 40.7498 38.2056 24.3031 16.5902 126551 -423113 692165 93562.8 -422603 -21573 
242 1 43.2686 38.0472 24.316 7.41 331480 479261 395635 206950 211419 254269 
246 1 45.8917 38.1736 24.3332 5.68044 24206.5 336071 -626309 -544191 405950 238256 
250 1 48.4782 38.0199 24.4562 5.67134 199285 868879 -366500 -344037 249040 214522 
235 1 39.3216 40.1771 24.34 10.1262 661812 -177614 141741 149601 39876.2 -173055 
237 1 42.0572 40.2515 24.5212 6.3042 670682 -360770 27529.6 -232902 -101621 -253432 
241 1 44.6356 40.3035 24.4422 5.52371 -321971 54598 -34244.8 80245 129130 7137.57 
245 1 47.1219 40.4037 24.4098 5.36618 -1.02e+06 -132520 -603149 -371664 -91712.9 62369.4 
249 1 49.5839 40.3147 24.4968 5.61892 -331464 -226056 -759953 11559.8 121061 73830.8 
256 1 37.9005 42.2878 24.3491 13.3073 551575 462778 256799 38489.9 56133.6 -93671.4 
260 1 40.5032 42.351 24.4331 4.63047 845089 334827 15327.3 99768.6 109526 36564.3 
264 1 43.214 42.4459 24.4881 5.90736 598677 71900.6 35927.5 51314.6 -109052 92433.7 
268 1 45.8577 42.5147 24.4588 5.72177 -395708 -697378 -710794 -234382 -10520.5 -63653.4 
272 1 48.35 42.5423 24.4635 6.65279 -419345 -676760 -28156.9 -102996 8300.4 106856 
252 1 36.6854 44.5478 24.3392 11.7094 284011 610179 241271 -68567.1 139217 -42803.3 
255 1 39.1501 44.4901 24.4892 4.916 1.03073e+06 829880 572081 370796 5043.72 61478.3 
259 1 41.8453 44.5858 24.5504 5.3019 778088 266745 -593033 243953 120076 -45587.3 
263 1 44.4791 44.7294 24.4641 6.30948 372852 259385 209248 -23996.4 -96075.3 121072 
267 1 47.0474 44.6917 24.5205 6.14232 -229941 -569375 -452907 -253892 86162.9 137587 
271 1 49.5658 44.725 24.5565 5.98783 -402078 -101578 -827383 -319533 -112827 -105258 
278 1 35.4623 46.8096 24.3861 11.1084 341945 -502901 77120.2 -390501 785713 470057 
282 1 37.9328 46.8007 24.4113 4.598 770634 654664 -107536 98479.2 33521.5 228444 
286 1 40.5806 46.8359 24.3944 5.87586 468205 597278 -288698 252687 19013.7 177529 
290 1 43.1037 46.8829 24.5463 6.02117 143986 424273 159426 101221 -69135.3 -34946.4 
294 1 45.6442 46.9215 24.5703 5.71815 -70222.1 27523.8 -324869 -143118 -73282 -119070 
298 1 48.2164 46.9494 24.5299 5.92879 -135081 -575980 -117593 -273095 40741.4 -101027 
274 1 34.4003 48.9906 24.3856 0 -27107.3 113872 379215 239864 119581 391412 
277 1 36.8045 49.098 24.4327 5.75868 -557483 -318937 -293642 -900066 -76497.7 -214546 
281 1 39.3105 49.0485 24.4487 5.96602 -49173.3 1.02887e+06 138054 -224821 129754 163667 
285 1 41.8372 49.1283 24.5852 6.07294 110438 576022 -293336 75421 -193930 14761.4 
289 1 44.3996 49.1426 24.5375 6.01991 220892 285795 -101175 -31194.6 -192024 46362.6 
293 1 46.9963 49.1299 24.5075 5.8447 -661442 -531491 -571568 489.223 16146.8 6007.9 
297 1 49.4315 49.0488 24.4621 5.8024 -362177 -556407 27135.6 72041.3 67341.2 -180912 
306 1 47.2573 34.4049 26.5373 0 74877.4 34731.4 471250 -432989 7029.71 -94287.7 
308 1 49.6263 34.5448 26.5522 0 316384 -656584 612307 -470988 24689.7 -43068 
315 1 43.4974 36.6454 26.3498 0 -1687.32 -166792 391643 -299221 198488 66733 
319 1 46.0369 36.5853 26.441 7.25948 245797 266103 107719 182980 130146 11195 
323 1 48.6016 36.6885 26.5629 5.39252 -31364.9 -1.05594e+06 -480459 -252267 -158134 129903 
310 1 39.5265 38.7562 26.5486 0 48907.8 235724 920579 -306948 -134654 24855.3 
312 1 41.9944 38.6609 26.495 7.7703 82796.2 190023 75369.7 219845 -60589.1 73869 
316 1 44.6396 38.7496 26.5027 5.70871 12118.4 -498377 249345 -171957 103824 -22472.2 
320 1 47.1944 38.8726 26.4771 6.02713 -249332 -467480 205983 17557.9 35072.1 -97522.3 
324 1 49.7087 38.9197 26.5378 5.58509 -614705 -860454 -467428 -38383.7 -126583 279995 
329 1 38.3806 41.1027 26.5068 0 -740222 53867.1 229357 -129332 -98699.7 58659.8 
333 1 40.7489 40.8947 26.5066 5.4159 -717522 39465 744453 174546 31156.7 -64748.2 
337 1 43.2941 40.8793 26.5873 5.63707 -278789 123693 -654772 31393.3 -178943 -24906 
341 1 45.8506 40.9944 26.5583 6.06548 -430451 -504500 -193399 124791 -55538.1 12379.9 
345 1 48.3584 41.0124 26.5375 5.80747 -196079 -218873 -148656 -125534 196070 -23414.3 
327 1 37.0848 43.2829 26.4675 0 45286.6 180163 96360.3 -108991 1083.91 -28094.5 
330 1 39.536 43.2067 26.5558 4.26358 -516595 -382258 -799687 -337354 582821 454405 
334 1 42.004 43.1511 26.5507 5.40763 -92630.8 -187732 -39382.7 191931 196892 109218 
338 1 44.5537 43.1329 26.5454 5.87857 -557409 -24683.6 -124283 132310 -68185.5 -30701.6 
342 1 47.0066 43.2547 26.5408 5.88897 -277380 -244358 -407614 -235007 -59593.9 -12203.6 
346 1 49.6273 43.29 26.6231 6.4242 231737 -96124.8 16619.5 -58694.6 -50348.1 248231 
351 1 35.7382 45.4959 26.4408 0 65406.3 -74900.4 78521.6 -255660 -18625.7 90370.9 
355 1 38.1938 45.4846 26.5673 4.76632 -364841 -383221 -31825.7 153228 -240808 -36026.4 
359 1 40.6736 45.4213 26.5162 5.5218 -360068 -59058 577159 305221 1410.21 -46930.9 
363 1 43.2209 45.3389 26.6092 6.03312 -374120 263475 -132724 -134693 -74472.2 72769.3 
367 1 45.7045 45.417 26.6472 6.5528 -182564 1976.38 -268701 15218.4 -9694.18 100568 
371 1 48.3288 45.4172 26.63 5.97823 -317243 -255438 -280628 -193985 187788 -13418.5 
349 1 34.461 47.7353 26.4658 0 -540425 45231.6 -115735 91043.5 73749.7 106143 
352 1 36.8345 47.7035 26.5473 5.16767 -514853 113452 625355 -510467 466904 352298 
356 1 39.3764 47.6377 26.5371 5.82599 -15348.1 185082 216682 -226679 57441.5 221563 
360 1 41.8876 47.6364 26.6425 6.0995 152396 246726 100996 -160214 -127744 53286.2 
364 1 44.4455 47.6809 26.6362 6.27163 -254566 212931 -416018 75654.2 36801.3 -39250.3 
368 1 46.934 47.6849 26.5938 6.19132 -274340 48361.3 -326951 -51093 26701.8 120183 
372 1 49.547 47.5717 26.5961 5.2277 -217516 -55818 -326325 -61342.9 -69281.3 -2125.18 
377 1 40.5397 49.9252 26.594 6.14589 252083 332948 327332 38237.9 178266 144853 
100 1 38.5125 43.3446 13.2005 11.1868 857121 285488 1.27396e+06 -149761 -502766 -277910 
227 1 45.7575 49.8978 18.2867 3.0059 -598915 -199393 -735606 -208085 -295722 -156980 
299 1 35.5191 49.9331 22.3306 6.5631 479109 -25634.9 323150 235281 73954.1 39467.9 
305 1 44.7669 36.0696 28.5486 0 20772.5 -783029 294412 -282303 399808 -130377 
307 1 47.2521 35.7674 28.5764 8.92942 229534 754198 795326 -25459.7 133662 -256051 
309 1 49.7263 35.8739 28.6348 6.33491 377088 425939 1.23914e+06 148285 -248526 -10413.1 
314 1 40.7169 38.1685 28.6755 0 342523 -187454 464891 -303674 -288401 -38155.3 
318 1 43.329 38.0417 28.6181 7.29192 -677602 -144549 -162792 211570 -38359.5 172011 
322 1 45.9038 38.0844 28.6086 6.06637 -700432 -624098 383266 -523927 33067 -36514.4 
326 1 48.4835 38.1286 28.6207 5.88687 115507 359087 6479.94 161755 125721 18628.2 
311 1 39.2805 40.2406 28.6677 9.35883 664623 329191 608340 -31038.5 -263746 12198.1 
313 1 42.0418 40.1917 28.6605 6.22133 234153 -555537 -83809.6 -439442 240899 70037.3 
317 1 44.5661 40.1778 28.6346 6.10324 -366322 -396322 -208850 65075.1 -178307 198514 
321 1 47.1081 40.2869 28.6278 5.9301 80314.7 -33040.9 -233339 -65239.8 124726 91128.8 
325 1 49.7121 40.4052 28.7238 5.63201 158943 118665 -71671.2 -149360 234218 -55850.1 
332 1 38.012 42.4439 28.6068 10.2124 -45248.4 16812.5 -580262 -106817 526070 122718 