ITEM: TIMESTEP
80000
ITEM: NUMBER OF ATOMS
5538
ITEM: BOX BOUNDS pp pp pp
0.102528 99.8975
0.375086 99.6249
-1.63625 101.636
ITEM: ATOMS id type x y z c_csym c_2[1] c_2[2] c_2[3] c_2[4] c_2[5] c_2[6] 
4 1 49.1502 37.1405 7.58846 0 -341444 94004.1 4893.81 182777 -90128.9 4760.06 
10 1 44.3785 40.5185 8.31085 0 -295743 22024.7 -620746 152285 -100705 -170801 
47 1 39.1501 44.5861 7.82715 0 1015.84 442794 -25905.5 182690 -299320 11664.4 
60 1 44.4778 47.9611 8.09954 0 -299286 -271500 -165104 33669.4 -224469 -130469 
5 1 48.5624 36.2815 9.92344 20.2614 367302 250954 142121 -91444.1 520121 -39736.5 
15 1 45.3603 39.1085 9.93091 11.7105 -343024 940174 -211388 -157846 -837218 60977.9 
2 1 47.4337 38.335 8.90506 17.6024 118821 405718 -69409.7 -57608.9 43455.5 -167284 
6 1 42.1672 39.93 8.9429 0 -321265 -237665 65258.7 -172693 261160 11297.9 
1 1 46.8391 40.8215 8.74441 17.6434 730552 589893 143427 413977 107386 -33689.5 
25 1 38.0763 42.7234 8.89993 0 611238 438708 -353409 -341986 -316165 -427550 
7 1 40.2169 41.4737 9.15505 0 1.20851e+06 438558 600272 -166488 -75257.7 -140180 
9 1 42.7221 42.2421 9.21055 12.9962 845472 -295507 -119312 -275543 -216500 -277005 
11 1 45.257 42.7445 8.88148 0 -102698 752635 145855 320371 146480 402496 
14 1 47.4376 42.8866 9.99195 8.73371 -188153 -233418 77000 639989 -732251 163147 
2854 1 49.3227 41.5367 9.21074 16.7091 1.02181e+06 1.08007e+06 -172232 207473 390954 -27743.5 
24 1 36.5182 44.3431 9.88733 0 129708 381997 118891 37961.3 -95715.5 14707.2 
32 1 40.7094 43.8204 9.40559 0 -107107 -11517.2 -846815 -869.996 -384228 252246 
35 1 43.8084 43.996 10.4936 7.98604 -120105 -602801 -944149 -1.238e+06 94573.3 8945.89 
39 1 46.1299 44.9255 10.002 9.89045 -193425 509917 320518 729000 -19662.6 394641 
2853 1 49.4994 44.1287 9.31868 16.4916 646249 1.06944e+06 131713 224552 -37079 48489.8 
50 1 37.469 46.152 8.6321 0 17227.4 234372 151580 -37596.2 -330869 -32721.3 
23 1 39.5414 46.0452 9.8289 10.651 -317180 1.54075e+06 270537 523015 -188189 365581 
31 1 41.8644 45.7152 10.3504 11.2906 113420 798235 141615 -602204 -231775 1922.45 
63 1 44.1593 46.2651 9.91549 8.47274 -1.38826e+06 -1.12183e+06 -112606 -96273.1 243119 378317 
66 1 46.2037 47.4761 9.73428 12.5272 -424409 397123 -415081 -347024 -299975 195982 
43 1 48.2928 46.1831 9.97029 12.7706 1.19585e+06 213196 -27382 46953.7 -542962 -528213 
45 1 37.8764 48.0201 10.1505 13.0013 14880.6 92553.6 -214412 -298974 -114876 -425936 
52 1 40.3947 48.5845 10.518 6.70237 163591 1.65707e+06 367951 1.13711e+06 267773 86515.1 
62 1 42.4571 48.0016 9.44892 14.3639 -239143 -632788 173405 700776 412212 -234139 
61 1 44.6645 49.5166 9.9011 12.4071 529745 573832 309627 -290376 -14730.3 512841 
2876 1 49.6577 48.2046 10.1725 0 -577837 191800 -371027 -115804 309171 -235105 
3 1 46.4477 37.0564 10.7518 17.673 -842095 -630305 -569862 473953 -256852 565188 
19 1 45.8347 35.8894 12.7357 0 42689.5 -471258 -251882 -113542 -37363.3 315713 
22 1 48.1398 35.7504 12.1841 0 -581188 -284539 -747432 311295 -544656 513355 
18 1 44.6518 37.8947 12.1655 11.4598 142655 147829 690916 532470 -220209 -430863 
21 1 47.6748 38.1622 12.4458 4.53966 -24068.7 -609203 -62923.5 -311654 -245675 164975 
2837 1 49.8361 37.9643 11.2732 5.23586 -79366 265416 -919849 -68749.3 -272330 -112173 
29 1 40.7042 39.644 10.8585 0 -42131.1 383016 63983.7 27602.9 109581 -44728.9 
8 1 43.1792 39.5969 11.1124 8.78664 126665 -70649.2 757718 215830 152753 -44948.9 
12 1 41.8748 40.9417 12.6323 9.03224 61094.1 677805 -501980 272328 -19411.6 232004 
13 1 46.1525 39.9574 11.9325 4.11275 -732215 -162667 -760136 -102690 -569736 -911232 
16 1 48.0763 39.8602 10.6335 6.27228 -72020.8 165555 -275588 -44338.4 -185142 140947 
41 1 49.2558 39.9664 12.8157 5.1509 -1.41587e+06 -616285 -918154 -249717 8935.7 544739 
26 1 39.7358 41.8089 11.5902 12.9357 292996 682357 796891 -474187 -705155 636098 
30 1 41.7472 43.0441 11.3496 7.27123 -377662 -183289 -62336.2 329007 140415 308293 
33 1 44.5318 41.5024 10.7922 9.19527 111378 1.5051e+06 -968217 -295870 458466 110719 
36 1 43.8209 42.4899 12.7373 7.05482 438148 1.11395e+06 -1.45557e+06 55008.8 -5425.18 -180435 
40 1 46.3904 42.3626 12.2477 7.23977 266179 -669726 603138 79470.1 55017 141552 
44 1 48.7464 42.0753 11.7479 11.0984 26607.6 -33934.1 -927377 121854 -275286 754742 
28 1 38.7781 43.9006 10.7551 7.39485 -299843 466152 -489399 -88695.1 -450378 -641158 
51 1 37.1372 45.1855 12.11 8.84128 -166155 185143 -57617.9 295688 56399.6 -166485 
27 1 40.3958 44.7247 12.2862 8.20948 351497 488124 -243246 -419461 -378745 -1.30613e+06 
59 1 42.9524 45.1735 12.4664 6.2953 -457155 832804 -1.33702e+06 380216 163789 -398234 
64 1 45.3888 44.5058 12.2523 3.97901 -67313.9 31671.8 -252759 464739 -85921.6 -458526 
38 1 47.8754 44.4376 11.9851 4.43746 -1.47773e+06 -401056 365844 -132119 318635 -296873 
48 1 35.9304 46.6921 10.6028 0 -16464.8 308004 376875 -136798 -182153 81015.2 
49 1 34.9072 45.9665 12.7654 0 -126349 233914 446671 -134797 -2999.41 -200606 
54 1 38.9403 46.9414 12.0882 11.0993 1.03173e+06 717245 -263088 -260186 -340357 326827 
58 1 41.4531 47.2558 12.2114 8.42864 629242 130189 825607 -39738.8 494225 160078 
75 1 44.5325 47.0436 12.0564 6.28344 -278000 521896 -453119 754953 234282 -189557 
70 1 46.912 46.6942 11.9196 4.88516 -1.38396e+06 -278302 238016 562613 432042 4387.02 
68 1 49.4796 46.4023 11.9795 5.78316 -1.7932e+06 -1.2877e+06 -79245.9 500425 -34670.3 -218301 
71 1 36.3552 48.7284 11.927 10.8508 647603 711772 304295 311991 56839.3 -215104 
53 1 38.7538 49.4439 12.2577 6.13767 1.02212e+06 859960 227712 -207213 201132 -1.05327e+06 
56 1 43.1297 48.8511 11.6337 7.88854 -463096 -253854 33957.6 -178115 4687.57 524857 
65 1 46.1946 49.0496 11.6805 10.041 328951 583745 182334 1.24252e+06 -1.14879e+06 -101046 
76 1 48.4584 48.5214 12.2153 9.3436 -1.74875e+06 -1.7996e+06 -2.55613e+06 510184 -320585 125958 
2851 1 49.9768 38.9705 9.0962 9.53767 1.04043e+06 342107 322668 -123623 494657 182786 
90 1 43.5563 36.3602 13.9388 0 948675 -83737.4 414280 -297183 -926196 -65062.6 
94 1 45.4225 35.23 15.0966 16.9476 -454252 32353.3 -510122 97995 170895 484935 
98 1 47.4708 36.5206 14.468 5.57767 -412766 128954 277316 -476398 194732 -332849 
81 1 49.4073 35.2721 15.4147 8.09722 -1.34116e+06 354725 -146622 417109 58755.1 -538533 
20 1 49.8256 36.937 13.5187 8.54497 -8067.56 459428 83837.1 590961 -139517 -168889 
84 1 41.658 37.2479 15.604 10.6846 -31607.8 224459 232323 -471189 -503300 66455.2 
88 1 42.5437 38.5766 13.4857 9.88672 568374 723417 1.06959e+06 -328801 -372222 64409.5 
93 1 45.8933 38.4765 14.1705 6.97652 549536 331200 309688 -181452 -260910 -955297 
97 1 48.5617 38.6316 14.7223 8.41691 347635 -625474 -267922 -403555 -3511.45 -436054 
105 1 38.205 40.1811 15.3981 0 390014 421745 439022 455546 -592758 -216495 
85 1 40.4563 39.3152 14.8666 12.269 118873 584869 -271321 -191366 -183226 -180496 
112 1 42.2921 40.8499 14.9776 8.93524 -490818 518302 -370999 -50842.3 -609438 478544 
89 1 44.3102 40.1972 13.5193 7.83943 21214.4 -48832.5 752860 -422545 23220.2 150672 
17 1 47.2143 40.6454 13.8785 8.25592 -351019 132397 -858151 120765 -148191 62342.3 
100 1 38.4543 43.3639 13.2887 11.5886 1.00646e+06 396683 1.48563e+06 -240428 -1.07094e+06 255388 
108 1 39.9322 41.6001 14.0201 9.08969 52.3229 480715 -185959 733033 -696789 -69087.5 
107 1 41.8578 43.2755 14.044 7.54139 566570 1.37159e+06 1.47967e+06 888.724 903975 308090 
37 1 45.4056 42.1548 14.4881 7.95486 -467137 -288085 -447308 -181057 -633292 -23.1286 
120 1 49.096 42.2156 14.2056 6.8848 830292 1.87715e+06 1.06728e+06 -213785 -153668 501530 
121 1 34.0605 45.4685 14.9636 0 9819.84 79359.8 253715 -865798 -330401 -380019 
123 1 36.0883 44.0849 14.0663 0 924997 308442 -119224 -690437 -656099 -210160 
103 1 38.8015 45.5692 14.092 9.27201 -634182 -477903 -575281 23223.3 -169650 134830 
111 1 44.1397 44.3616 14.4791 5.87958 -376299 230459 -745823 -116236 -577771 109466 
34 1 47.0928 43.9385 14.201 5.36371 8707.46 1.18756e+06 621287 -653152 489290 51917.4 
67 1 49.3878 44.8353 14.0102 9.10268 224669 620488 55136.8 243889 336779 -79903.3 
130 1 36.8703 47.0911 13.6779 8.26462 -215109 -127273 583476 241379 -446768 -250665 
55 1 41.2136 45.7584 14.2548 8.4008 -1.30401e+06 -571133 -2.1027e+06 60387.6 -114338 -328834 
138 1 43.295 46.8511 14.1424 7.5118 4940.08 -506060 -487371 -685735 521565 -101661 
142 1 45.8352 46.089 14.0818 5.81157 525429 -543541 -905856 -278546 -268644 -746248 
140 1 46.1354 47.8084 15.6077 10.0097 -244598 -1.83065e+06 209890 109646 45046.5 -739104 
146 1 48.2814 46.9524 14.2108 7.15685 1.3511e+06 382887 -168271 -408102 -47418.1 388666 
126 1 34.7551 48.1862 13.8373 0 -332097 -3670.41 631914 68936.4 187655 2743.1 
129 1 37.7747 49.1883 14.4866 10.4775 646722 438320 -18241.2 332695 -378115 -194465 
134 1 39.9088 47.895 14.1271 8.02735 163337 248098 367979 -251892 423652 -732969 
133 1 42.1177 49.0006 13.9507 7.88837 150513 -528330 703437 167102 98504.6 43899.5 
137 1 44.6266 48.8146 13.7563 7.51071 344785 -520975 1.04713e+06 -326421 449649 -225059 
141 1 47.0425 49.3694 13.9833 8.22811 391426 543546 -515943 -866606 209301 -185648 
69 1 49.6393 49.1757 14.0619 4.66311 94879.5 403864 -1.2905e+06 -556758 -620172 -437198 
78 1 47.102 32.6015 17.4392 0 -375893 -101094 -175028 -211658 -26110.4 -101678 
79 1 45.1291 34.1233 17.2283 14.5593 -331052 -72723.9 -408473 -220337 307221 296305 
80 1 49.3339 33.282 16.889 0 -221055 197116 -104527 176062 521933 -323720 
82 1 40.1876 36.8767 17.4078 18.3496 616847 249805 97005.1 -329681 -78314.8 -20593.6 
77 1 41.6166 34.9237 17.9506 0 176021 -91466.7 211690 -129857 -125399 44456.1 
87 1 43.3542 35.6472 16.3309 10.6901 138207 4568.6 -95329.1 283421 206125 13433.1 
95 1 47.3092 34.9719 16.6721 8.72647 -766942 419675 920302 -101670 22051 -181215 
101 1 37.1766 39.2467 17.6803 0 10376.1 -293473 636947 -666361 -11604.9 -683113 
83 1 39.6286 39.229 17.0724 7.22652 136630 54885.3 -716109 208429 -125558 45784.1 
109 1 42.2037 39.3481 16.7986 6.61946 1.59979e+06 307902 -129625 35909.8 -42735.4 -236546 
113 1 43.9657 38.0954 15.5728 9.76752 -581054 -316242 107881 -305774 337491 -169322 
164 1 44.6216 38.7231 17.9885 9.46143 1.69246e+06 662687 1.24399e+06 -210501 616476 -85705.4 
92 1 46.093 37.2592 16.4439 8.55896 222176 612970 403024 48081.1 -28247.1 187268 
96 1 48.6193 37.1878 16.762 8.21478 437740 99878.1 -352027 353350 -401933 -57296.6 
116 1 44.5247 40.4222 16.0021 9.31904 -212994 -192389 274561 652919 -37651.5 -231156 
117 1 46.6997 39.6417 16.0073 8.28159 -711530 -540310 -1.1552e+06 -178669 -293542 -18009.2 
2924 1 49.099 40.4949 16.1888 7.11514 -1.03757e+06 -1.2345e+06 -306885 31791.2 -216336 -613702 
104 1 36.3163 41.3939 16.5321 0 277737 692413 87671.9 -318615 28471.2 -92460.6 
175 1 37.0463 43.3686 17.9604 9.05233 -20785.8 -168022 306457 105147 1587.33 46971.5 
102 1 38.3706 42.6481 15.7875 8.65897 189837 446230 1.69514e+06 36773.6 179849 -339879 
106 1 40.8252 42.5025 16.0924 7.42284 398056 -371736 -352410 -26548.6 241977 15569.9 
110 1 43.4541 42.6251 16.1841 6.66312 1.02708e+06 -164419 388937 -33176.3 -134640 -2031.46 
114 1 47.2346 42.0286 16.1223 5.41281 -822146 -559054 566658 -168224 -174972 -736405 
99 1 35.191 43.6186 16.3387 0 -133938 945830 399778 -342925 163681 109235 
127 1 37.2774 44.7932 15.8919 6.92272 -227905 -309880 -678777 -339242 -419500 -186167 
131 1 39.8517 44.6627 16.1081 4.96708 -263019 -630914 -149121 -33234.5 -158808 65669.2 
135 1 42.3204 44.8661 16.2354 5.21287 343107 1.08558e+06 -40597.6 -684014 -198556 643118 
115 1 45.6849 43.9617 16.2491 4.61963 -588484 7606.4 -1.02844e+06 48887.7 -202002 95664.8 
118 1 48.7433 43.8191 16.2204 4.36068 -311965 -695435 125829 -146965 -597643 -115014 
122 1 33.502 47.6641 15.8397 0 -469976 -22811.3 146386 -211743 19474.4 305587 
124 1 35.7548 46.7142 15.8439 9.27669 -1.04537e+06 290948 546883 -468658 -299579 -694431 
128 1 38.1548 47.1523 15.946 5.15809 -377844 -90734.7 458181 -172430 141968 -175663 
132 1 40.7131 46.9932 16.2747 7.74063 845074 820121 -936423 -868590 13463 -124903 
139 1 44.3683 46.166 16.2139 5.13741 342833 649280 -35958.7 -185398 66642.1 18416.8 
143 1 47.2487 45.7659 16.1215 4.29176 -949884 -218026 -19657.7 308556 -516785 1.27614e+06 
216 1 47.0116 47.6479 18.0332 1.65827 158117 1.04055e+06 1.74263e+06 -376684 190394 897100 
144 1 49.6591 46.341 16.1102 0.961018 -258947 304485 -114630 -1398.48 -449220 -29611.3 
147 1 33.6278 49.8299 17.1153 0 -831342 -154343 -398442 125377 -392730 612623 
200 1 36.8254 47.7635 17.9169 5.11087 933363 871161 1.82866e+06 -441476 918910 -706093 
125 1 35.6316 49.2689 15.9559 5.31683 -64719.4 1.25631e+06 1.01243e+06 -943449 462943 -742074 
149 1 39.4382 49.2619 16.3752 7.64408 -230109 242798 -832969 -385192 -143280 12034.7 
136 1 42.8219 48.1478 16.2089 6.05053 -45194.1 322813 -61432.9 -572984 68491.4 -91301.6 
151 1 44.7066 49.483 16.2228 5.63098 -1.2456e+06 -983728 170560 673410 382955 -518163 
145 1 48.3036 48.6189 16.0891 2.16026 -453908 84700.8 -408944 -691721 -67595.4 -135968 
91 1 43.5608 34.0816 19.0731 0 136634 -26354.1 -418228 288631 34998.8 -294216 
154 1 46.0411 33.4052 19.4497 0 1.14721e+06 418131 61580.6 149111 -10919.2 7809.19 
156 1 48.4557 34.286 18.8254 10.1782 728378 -50620.8 -883451 310737 74799.8 -689352 
86 1 42.4015 35.8971 20.1429 15.7102 531945 -331659 65227.1 658.649 238281 -58584.6 
167 1 44.8727 36.2554 18.3235 10.0862 141983 560696 733510 507952 402782 566386 
171 1 47.2069 36.4869 18.7368 7.94799 -306786 -82371.2 712892 -103380 2239.55 195772 
2980 1 49.6854 36.5323 18.8152 9.50954 -212865 890139 112276 -22127.2 -344682 235596 
158 1 38.778 38.0553 19.203 0 493750 554680 676596 -430636 395562 -23172.3 
160 1 41.1374 38.7748 19.0557 7.13916 -822790 -995099 -451273 -194699 -207077 -665672 
163 1 42.5874 37.1797 18.1038 8.94314 124729 -466335 -1.04276e+06 194518 238988 -534741 
166 1 43.2789 38.1677 20.1597 7.10502 -250794 -216284 -341962 -353139 -481066 -411838 
170 1 45.6646 37.903 20.3032 6.52806 529467 1.32469e+06 1.38516e+06 493434 303714 402490 
168 1 47.245 38.8278 18.2058 6.47715 -191198 -181883 -351083 43444.8 -270841 332066 
172 1 49.5688 39.0385 18.1342 7.98105 -816918 381410 306573 117741 -12660.7 -654984 
174 1 48.3222 38.1321 20.318 7.07804 348867 10318.1 64325.1 272705 -443657 -125000 
177 1 38.3842 41.1882 18.0061 7.19797 -457274 -860081 706525 -604423 -87109.1 -498976 
181 1 40.8361 41.1398 18.0897 8.79969 -32748.9 -140678 234085 -111779 7729.85 226110 
159 1 39.4006 40.2807 20.1439 8.56371 1.41083e+06 342919 674033 42702.6 483394 71935.2 
185 1 43.348 41.0362 18.1213 7.29087 15878 344409 209053 -195506 -58237 9685.21 
161 1 42.1004 40.4921 20.2902 6.87858 -227386 -948625 -300555 -244959 -216332 -719055 
165 1 44.5442 40.2539 20.2305 6.21867 -294858 584496 791765 -323350 -61632.3 114010 
189 1 45.8749 41.0265 18.0962 3.00214 -72941 758139 965414 -147056 -278771 119801 
169 1 47.0348 40.232 20.3192 5.24729 -189162 201405 -72075.6 397656 163290 41446.9 
193 1 48.3249 41.2027 18.3106 2.28694 -236373 -359180 -578900 289304 224847 -318586 
173 1 49.5912 40.2818 20.3571 5.74476 -60078.4 10798.9 -198441 99700.6 287389 124443 
180 1 37.9017 42.3629 20.176 13.0769 803624 802762 346512 14360.9 -45306.7 -202893 
178 1 39.5794 43.3498 18.2158 5.23604 -220998 -426564 482504 -113650 219129 198672 
184 1 40.6036 42.4318 20.3919 5.29186 887958 -280047 -1123.52 178775 -352041 -48429.2 
182 1 42.0481 43.3526 18.2416 5.78104 -458631 -356439 653813 -62120.6 -267961 -103320 
188 1 43.2736 42.5956 20.3353 5.59924 282482 -103573 -54805.9 -539968 224160 128095 
186 1 44.5664 43.2712 18.3437 3.73249 -582455 263294 -719615 -317202 -59578.1 222559 
190 1 47.0726 43.321 18.1858 0.766592 -113756 -827233 -103574 199460 -607748 -350579 
192 1 45.8624 42.5275 20.2578 6.11693 -255687 317793 -67985.1 261465 -303089 165866 
194 1 49.6535 43.2805 18.3813 1.92193 -778100 -436262 -996618 500791 48788.4 93098.1 
196 1 48.3274 42.5063 20.4098 5.87046 -190454 152564 -805809 73097.7 194325 -113428 
199 1 35.7024 45.4851 18.0415 9.70075 593111 1.02e+06 780759 -153351 180713 63538 
176 1 36.7831 44.6438 20.1586 10.1327 362663 468551 397047 -37403.7 31714.8 -99358 
203 1 38.289 45.5811 18.0071 5.26513 396668 -353884 662751 -507690 -177970 -397258 
179 1 39.2653 44.678 20.354 4.97416 723021 420796 239445 327165 159107 -363655 
207 1 40.8295 45.5474 18.2979 5.07032 -561757 -941733 -153793 -81026.8 -212979 -208927 
211 1 43.2734 45.5024 18.3771 3.96761 -842507 -14877.4 -340963 -289446 -122800 -161275 
183 1 41.9262 44.643 20.4372 5.57124 600878 137510 -432903 116932 -130391 116527 
187 1 44.632 44.7592 20.431 5.91843 -174095 -175345 -613282 -159012 -104466 -130150 
215 1 45.7455 45.527 18.2772 0.591144 -450746 -629667 -59428.8 28280.9 -115458 -108572 
191 1 47.0991 44.7984 20.2539 5.90836 -318737 112409 -170960 -80698.6 22503.7 1844 
219 1 48.3783 45.4184 18.1953 0.517755 -213521 66897.4 -517499 37173.4 -248318 113583 
195 1 49.6363 44.7747 20.4079 6.41822 163730 75313.4 -164052 77792.4 -47885.1 -202287 
197 1 34.2927 47.7466 18.1621 0 653987 1.32714e+06 -235599 376482 -149599 572388 
202 1 35.4588 46.8579 20.1649 10.4348 496989 26044.3 -296517 134877 -318956 132858 
206 1 38.0104 46.8416 20.2291 4.63454 371170 -74824.8 341800 -21714.5 91458.4 -118884 
204 1 39.3391 47.7091 18.2612 6.24248 -242818 -1.17608e+06 -442851 -325951 151576 140217 
210 1 40.5321 46.8607 20.3737 5.14406 226217 110999 -368440 120319 355964 -212901 
208 1 41.9684 47.6812 18.42 4.83016 -24032 -692236 -430977 -451897 103111 -64722.7 
214 1 43.2042 46.907 20.465 6.1026 12063 -223928 -1.33805e+06 141514 191984 -180445 
212 1 44.5144 47.7449 18.2085 2.785 -76164.9 -329502 472344 619111 65063.4 28642.1 
218 1 45.779 47.0121 20.2839 5.84533 44016.1 -340182 236211 -122579 -20670.1 -200106 
220 1 49.5266 47.8247 18.1666 0.239879 42899.8 33307.5 -368772 160183 -82661.3 -163408 
222 1 48.2858 47.0145 20.2224 6.09015 -290746 -57358.1 440058 -237616 145201 -59495.9 
198 1 34.4992 49.1353 20.2567 14.3794 -437696 112357 -86586.2 220126 -62944.3 224911 
201 1 36.8753 49.0369 20.3465 5.49632 -979481 -145413 94844 -5246.6 57460.2 393377 
224 1 38.1399 49.928 18.3594 3.60337 -556272 -489332 -1.32327e+06 651080 62909.7 175150 
225 1 40.702 49.8216 18.3866 3.95285 -420295 -243665 -765096 -162520 -238279 -253961 
205 1 39.3876 49.0795 20.4466 6.17397 -477364 -357620 -561861 176523 28173.2 257312 
209 1 41.9396 49.0869 20.4468 6.05244 -755082 -439102 -541797 57833.2 -18323.4 -3758.92 
226 1 43.2458 49.7949 18.2365 2.11967 -411667 -489756 729373 561085 311191 -928482 
213 1 44.3579 49.1265 20.4385 5.17241 -449540 -49731.1 176359 61182.6 107350 89165.7 
217 1 46.971 49.1722 20.3513 5.76483 -74903.8 -444613 252384 -133471 -124250 494860 
380 1 48.331 49.8627 26.6106 6.04298 -51234.4 164264 -305662 -38480.8 -71328.1 86094.4 
228 1 48.2208 49.9779 18.2211 0.129057 -569479 -114297 -200295 327959 -139066 -70175 
221 1 49.5635 49.1852 20.2285 6.34832 208633 -546330 212160 116647 -164748 40285.7 
153 1 44.9505 35.4478 20.5731 11.1142 22666.5 96186.6 -738369 -311075 -278109 -306608 
239 1 43.5575 36.6245 22.2102 11.4453 160063 16898.5 863084 -494612 248442 -107387 
155 1 47.3123 35.0665 20.8342 10.9711 -399073 278147 296763 58448.7 246902 -382655 
243 1 46.0325 36.5391 22.418 7.44201 -101559 -535840 -126876 186702 -287166 -391149 
157 1 49.8441 35.0639 20.7828 8.28494 340398 234445 35905.6 -166340 -68308.8 129424 
247 1 48.5182 36.6974 22.3337 9.2308 -32673.1 -1.26064e+06 340250 -456575 315463 89718.5 
162 1 40.5966 37.316 20.861 17.461 406948 51942.5 155959 -12233.5 493464 -286701 
234 1 39.4848 38.9197 22.1584 0 -536257 -828645 242425 107960 236870 -158362 
236 1 41.9661 38.7501 22.2571 7.92882 -140607 672640 742395 76433.5 15584.6 223590 
240 1 44.5661 38.754 22.407 5.70561 -231826 -1.07585e+06 -278251 59643.3 2765.18 -222041 
244 1 47.0705 38.7886 22.3659 5.85353 -343443 -433509 -654397 121899 325966 170255 
248 1 49.6076 38.8625 22.4813 6.03725 -362935 -813588 -612214 12511.8 -180307 -132135 
253 1 38.298 41.0757 22.2945 0 -60815.4 -582594 -65045.8 242469 -53906.6 -116119 
257 1 40.833 40.9401 22.3225 4.92672 -357700 -766176 1215.75 -247198 502078 434981 
261 1 43.3313 40.9439 22.4301 5.48622 -640820 39940.2 -146078 -13479.5 -225588 -40118.3 
265 1 45.8016 40.9904 22.3766 6.10944 -365160 -14871.2 128328 189439 95378.7 -51733.9 
269 1 48.3646 41.03 22.4061 6.13701 101621 -296622 -628139 114318 213148 26573.6 
251 1 37.0964 43.3215 22.3003 0 -628328 -81763.3 -174421 -475179 -37435.9 -98134.9 
254 1 39.4393 43.2321 22.3961 5.43662 -1.01486e+06 -70494.6 -462656 -380669 417407 190118 
258 1 41.9496 43.1446 22.403 6.00405 -339374 -460352 -362717 -242243 8425.6 65412.8 
262 1 44.5369 43.1551 22.4193 5.58074 23212.2 -93925.8 -204500 50679.4 -110047 113297 
266 1 47.0782 43.2868 22.3901 5.98331 -101421 110700 -60170.5 246148 152861 -166400 
270 1 49.6262 43.2859 22.4929 6.24133 -224082 17952.4 -730112 103615 162844 -46270.6 
275 1 35.7596 45.5473 22.177 0 -650528 293796 -105068 -389272 -45580 182546 
279 1 38.1371 45.4775 22.31 5.27938 -987923 -874336 51266.9 -18869.5 184346 -117218 
283 1 40.6401 45.4054 22.5347 6.12494 -216296 -322809 -416795 22493 -157400 -50393.4 
287 1 43.2119 45.3589 22.4384 6.16051 -147587 -607299 -534644 43611.6 -71945.4 45335.5 
291 1 45.8087 45.4349 22.4449 6.07504 -79794.8 147265 -114866 187997 -279008 -171434 
295 1 48.311 45.5166 22.4164 6.26632 -124641 -91264.8 13357.4 68126.5 110883 -276176 
276 1 36.9576 47.7071 22.3884 5.15964 -440694 -374889 -32206.7 1416.8 -196420 176049 
280 1 39.4023 47.6214 22.3912 5.95377 -95900.8 -195113 -813783 20583.6 11540.7 146162 
284 1 42.0627 47.544 22.4349 5.42007 -378631 -25127 -820114 297614 361102 815.48 
288 1 44.504 47.5797 22.4721 5.55711 -427145 -169994 -301429 -204920 -244143 -1682.25 
292 1 47.0992 47.699 22.4349 5.83949 140323 -351774 16282.5 291134 -142296 -1571.77 
296 1 49.6431 47.7222 22.3289 6.03062 -90358.8 -276296 343288 -159690 72994.7 -64676.7 
273 1 34.5498 47.7918 22.2848 0 -183765 40978.6 56602.3 -35015.9 26535.5 172405 
301 1 40.6711 49.8697 22.5025 5.73377 54802.6 357562 -174894 -179164 20284.1 12764.5 
302 1 43.1954 49.8362 22.6011 6.10579 -301536 -39394.6 -783627 -36110.4 14722.6 -72605.1 
303 1 45.7194 49.7906 22.4895 6.15224 -345253 30440.6 22362.5 40481 -16707.4 58735.7 
304 1 48.2273 49.9574 22.4703 5.58374 47087.6 -261418 -150939 -251818 -213226 301955 
230 1 48.6185 34.3758 22.8582 0 146879 -506718 -3051.94 -61354.7 1376.52 304881 
229 1 44.6502 35.9115 24.4861 0 482922 291020 232452 -188402 76913 -262382 
231 1 47.2372 35.6867 24.4366 9.54308 529042 625893 -965860 -149685 134355 352592 
233 1 49.7588 35.8335 24.5969 6.42373 471042 14488.2 1.27632e+06 -240592 -151276 -414571 
238 1 40.6992 38.2507 24.3172 0 189173 -236820 409023 -214348 227927 -31086.7 
242 1 43.2074 38.0276 24.3813 6.69111 18235.5 883007 510654 -182489 141931 28901.5 
246 1 45.9224 38.0826 24.4334 6.43514 -539463 -117326 -331908 -221121 104151 42925.4 
250 1 48.3452 37.9356 24.5168 4.91661 -295989 539582 -42931.2 315415 -50535.9 -28820 
235 1 39.2221 40.2564 24.4362 10.2923 375513 327175 75493.7 263789 -27974.5 285191 
237 1 41.9334 40.3086 24.4653 5.47487 198554 -97261.2 136871 -373448 -12077.5 321211 
241 1 44.5372 40.1525 24.5214 6.22342 323689 161467 -187774 208491 7999.45 -10000.1 
245 1 47.1185 40.2545 24.4391 6.15539 46365.4 -244369 -96903.2 -237611 98439.2 114905 
249 1 49.6284 40.2271 24.5304 5.34666 450840 231805 -320655 216489 8342.42 -108566 
256 1 37.9243 42.4042 24.3879 11.9647 396215 122119 -1.20594e+06 71038.3 430150 306865 
260 1 40.5258 42.4516 24.4585 4.66178 1.32705e+06 283825 323522 218144 291904 363831 
264 1 43.2793 42.4375 24.5103 6.15771 608390 -163569 -120933 -316010 54478.9 -52181.9 
268 1 45.813 42.4584 24.5134 6.184 127422 303910 -125663 171005 -14180.5 57275.9 
272 1 48.3773 42.4629 24.4829 5.78033 -33939.1 85576.3 -337458 -204189 100793 -19405.8 
252 1 36.6037 44.6123 24.3686 12.6802 700301 313752 -98051.3 187179 -26457.1 25095.7 
255 1 39.2184 44.6621 24.5516 4.63231 794923 280395 -12290.5 201765 149269 -27163 
259 1 41.8603 44.6187 24.4928 5.34376 421937 279011 -205803 24705.5 -185272 200098 
263 1 44.4576 44.6422 24.5293 5.75327 263333 -259059 -26843.2 -44876.2 -135001 117326 
267 1 47.0369 44.7018 24.5608 6.36951 568146 513167 288644 16729.4 -59684.5 -46630.7 
271 1 49.665 44.7157 24.5518 5.84491 325462 69245.3 -254652 1486.81 -86746.8 -83774.7 
278 1 35.4402 46.8451 24.4742 10.631 293215 124120 -153669 -61680.6 -318946 -28663.3 
282 1 37.9359 46.8301 24.5173 4.64147 618337 598772 198908 314001 305815 288516 
286 1 40.4961 46.8626 24.4848 5.17383 379360 -73510.6 -98249.5 100195 -44254.9 -208110 
290 1 43.1093 46.813 24.5406 5.2492 452415 132624 -378421 264175 -61531.6 51247.6 
294 1 45.6755 46.8864 24.591 5.61813 730622 104298 247493 151122 -136418 160395 
298 1 48.3677 46.9108 24.4705 6.22163 619909 350822 164299 58000.1 -263803 -185907 
274 1 34.4653 49.1294 24.4467 0 -304988 168714 626701 183497 -8372.48 135544 
277 1 36.8472 49.1739 24.4677 5.74366 -319430 560827 -94197 -346627 30127.1 94055.7 
281 1 39.3771 49.0778 24.5122 6.06772 -119129 284085 -88374.2 101624 61474.5 94964.7 
285 1 41.8926 49.0065 24.5495 5.38236 -127322 59576.9 -395024 18159.9 96849.1 268939 
289 1 44.4589 49.0691 24.5954 6.11264 118558 220847 -329402 331757 -118081 90316.3 
293 1 47.0485 49.0824 24.5308 5.69743 184981 465764 -277294 -98226 10932.8 -57994.2 
297 1 49.6011 49.1809 24.5023 6.18415 -169828 -209291 -77109 167290 -8775.26 10519 
306 1 47.4954 34.5813 26.4591 0 -500079 -479752 -279188 211600 -127948 331273 
308 1 49.845 34.3733 26.5402 31.2236 -286834 12431.2 675761 -81673.4 76444.9 -51135.6 
315 1 43.5768 36.5615 26.5812 0 -285800 -77105.5 -43061.4 -349719 -31789.4 -114958 
319 1 46.0394 36.5104 26.4242 7.54874 -402767 -93970.8 -27007.2 567139 -1796.37 -9807.85 
323 1 48.6166 36.7329 26.6943 5.32421 -608524 -917223 -534778 -340175 -4255.8 -98102.9 
310 1 39.5528 38.9093 26.4921 0 -293897 273793 241944 -300541 -32477.5 31638.9 
312 1 41.9532 38.6151 26.5327 7.32585 51773 1.08922e+06 -56633.4 -10722.3 -44206 95480.6 
316 1 44.6067 38.6771 26.5482 5.36658 -30387.9 -382472 -195605 -132533 1421.52 271136 
320 1 47.134 38.8525 26.5612 5.82616 17558.3 424196 121938 58233.2 108989 201780 
324 1 49.6887 38.8927 26.6244 5.3313 -870847 -1.32125e+06 -103654 -260281 18931.3 187947 
329 1 38.2809 41.2467 26.5116 0 -299725 -277585 -670571 -273548 -20502 -3978.49 
333 1 40.7532 41.0014 26.5295 4.90136 -519930 349745 -198477 -171582 236057 73622.5 
337 1 43.2086 40.8665 26.5679 5.85691 15801.8 515305 -538890 198703 -229514 -34790.9 
341 1 45.8533 41.0314 26.5864 5.96192 442201 -122248 656063 -37075.8 24751.1 40829.9 
345 1 48.3985 41.0926 26.6107 5.5879 -529567 -421884 220870 161290 -19816.4 3237.6 
327 1 37.0695 43.4369 26.4517 0 -157491 -590856 -276953 227557 79400.5 70371.2 
330 1 39.5462 43.272 26.5736 4.52538 57556.3 -871565 4942.51 -25774.4 -299434 -92943.4 
334 1 42.1229 43.2225 26.5813 5.13864 36892.7 450074 380385 126976 386326 395854 
338 1 44.5671 43.204 26.5867 5.60995 -630149 -6543.33 -33138 101464 62589.1 1333.21 
342 1 47.0569 43.1889 26.6685 6.58481 -368299 -372805 105494 -26895.8 -84804.9 -259160 
346 1 49.6014 43.249 26.5473 6.01732 -512412 -535515 -254213 -73041.3 -136307 67217.9 
351 1 35.8121 45.5673 26.5545 0 -195666 -574773 -305463 -130902 -41493.6 137967 
355 1 38.2552 45.5696 26.6265 4.78064 -287159 -529664 -441171 -14533.8 -96054.8 -69848.8 
359 1 40.7167 45.4301 26.6162 5.02288 19250.7 183673 190907 -471908 177155 -99068.9 
363 1 43.2755 45.4575 26.6635 5.18048 -122132 86641.7 -65354.3 129511 -73867.1 7314.02 
367 1 45.7241 45.4304 26.646 6.2618 -182506 -127647 -263187 -43939.5 3338.6 -62155.2 
371 1 48.3297 45.4396 26.6913 6.5947 -113321 -95874.1 -166303 40301 88198.7 -72266 
349 1 34.4293 47.7924 26.5363 0 -548273 486184 9398.25 -15950 -92175.6 173697 
352 1 36.7873 47.7814 26.526 5.46147 -602803 -722317 233816 -255062 -652336 -399473 
356 1 39.3582 47.7345 26.6359 5.24061 251128 -174615 80801.6 -317842 206334 344353 
360 1 41.9182 47.6407 26.6141 5.89492 265577 45198.4 26998.6 -53915 2643.93 219953 
364 1 44.4686 47.7105 26.7398 5.74051 140493 34044.6 18081.7 178098 -222325 219165 
368 1 47.0434 47.6338 26.7001 6.38063 261268 63400.5 110239 59526.1 -121389 75641.2 
372 1 49.6258 47.6117 26.5853 6.04749 -124224 -284504 -187143 231001 84846.3 -124073 
379 1 45.8034 49.8747 26.6122 5.85183 226215 22307.6 246476 64120.4 -85721.1 -30874.8 
376 1 38.0265 49.9096 26.5487 6.45195 70289.2 -227317 -180602 -174243 50044.6 104492 
377 1 40.6265 49.9055 26.6083 5.52064 208134 -114044 -335192 -161437 -18717.8 67579.2 
378 1 43.1528 49.8695 26.6233 6.0839 121575 -327680 -142331 19125.5 63622.6 4133.53 
227 1 45.8299 49.9979 18.3465 4.68111 -614440 138562 -848035 -253460 -6703.97 11964.6 
300 1 38.0995 49.9384 22.4151 5.35082 -143628 -59887.8 -343285 -67961.4 86622.1 63137.3 
305 1 44.7675 35.9966 28.5871 0 319026 -181675 -68329.8 -138664 -322832 88536.1 
307 1 47.2823 35.8508 28.6523 10.0555 642131 403476 -16665.1 -55884.3 38638.9 91693.5 
309 1 49.8762 35.7154 28.5846 7.42333 256887 1.04672e+06 349152 -221195 -263589 201040 
314 1 40.6249 38.1615 28.658 0 93358.7 -431510 -15622.4 -167548 154829 -162826 
318 1 43.1537 37.9708 28.6211 6.71764 184953 560847 -562592 354213 29615.9 -77482.5 
322 1 45.8532 38.1472 28.5917 5.55593 -13378.9 107485 500312 -455248 -202055 -186146 
326 1 48.4092 38.0662 28.7395 5.70577 77352.4 462886 -548455 -260932 152942 -212141 
311 1 39.1665 40.2044 28.5769 12.6217 97417.8 433071 -623058 177327 175599 147788 
313 1 41.787 40.2204 28.656 4.68832 192482 -742799 -36232.9 -231221 -198343 -65.715 
317 1 44.3673 40.2277 28.6266 5.38713 701104 82197.1 98481 482319 -138639 27553.4 
321 1 47.0873 40.2808 28.849 6.93367 328692 -454856 -145463 -3184.19 328082 92669.5 
325 1 49.6123 40.3274 28.7539 5.85034 -172306 -273259 -115392 145907 150507 72043.3 
332 1 37.9225 42.4574 28.6329 12.1861 585250 -56305.6 -472325 277643 -133715 -330568 