ITEM: TIMESTEP
40000
ITEM: NUMBER OF ATOMS
5538
ITEM: BOX BOUNDS pp pp pp
0.102528 99.8975
0.375086 99.6249
-1.43134 101.431
ITEM: ATOMS id type x y z c_csym c_2[1] c_2[2] c_2[3] c_2[4] c_2[5] c_2[6] 
4 1 49.0053 37.3173 7.4945 0 -565858 284362 645525 212816 9309.97 147549 
10 1 44.2799 40.6483 8.50637 0 535936 -355408 -477836 67583.3 -225635 -25154.8 
47 1 38.8765 44.3909 8.04544 0 -454834 -196429 -557998 157977 -183653 -128560 
60 1 44.3452 48.0632 8.069 0 238148 -235442 -284477 -31614.6 -67608.7 -683241 
5 1 48.516 36.2897 9.87312 0 -122843 285609 465119 -17519.3 116576 -117947 
15 1 45.2351 39.1078 10.0227 10.3244 -479199 45378.8 670522 500188 -875615 -953100 
3 1 46.2752 36.9475 10.688 19.5837 221967 -109829 186934 -326094 545325 257311 
2 1 47.2697 38.3204 9.04732 17.0678 367553 -49310.5 -231726 82189.5 327693 249413 
65 1 46.0467 48.9411 11.8266 8.61255 17801.8 180227 -433424 299252 -78191.1 -170338 
29 1 40.6152 39.6281 11.001 0 -508380 10017.9 -606938 266007 461727 486249 
6 1 42.0415 39.7242 9.16247 0 245061 -288706 -557583 -212101 270796 49956.1 
1 1 46.8149 40.7705 8.97239 13.9321 813308 55128.7 104004 268043 181358 -127795 
16 1 48.113 39.7778 10.8409 6.16671 -736843 -306053 -472310 -81102.8 -169713 79801.9 
25 1 37.8962 42.4792 8.93132 0 257878 196827 2393.55 -144896 177451 -7474.33 
7 1 39.9865 41.2344 9.35817 0 952700 594095 206484 -207368 -57057.3 399145 
9 1 42.3992 42.0189 9.62566 11.1861 -8213.73 -877895 -1.06091e+06 -520307 53062.4 -585534 
33 1 44.4947 41.5025 10.7851 8.32099 87826.4 331792 -1.06774e+06 534861 622214 -686858 
11 1 45.3639 42.8099 8.93344 0 -660875 -183130 55620.1 -353243 -310602 -13749.7 
14 1 47.4365 42.8526 10.0817 8.99223 -158613 -528108 -99929.3 500193 -963641 -185663 
2854 1 49.2718 41.5023 9.14459 0 1.14541e+06 606097 -457914 -38328.2 554303 -8139.27 
24 1 36.4892 44.141 9.88715 0 -446760 -382640 -36644 -37831 136444 406348 
32 1 40.5158 43.6897 9.55802 9.38303 -468928 51083.3 -694079 250387 -177313 210183 
31 1 41.7617 45.5305 10.4454 12.0751 -121922 183671 -648110 212616 -1.009e+06 169811 
35 1 43.6404 43.8452 10.4739 9.63168 616841 -816535 -467462 -144340 -157726 -34185.3 
39 1 46.098 44.7945 10.1405 9.69487 697274 -344476 -977738 723011 -488391 129762 
2853 1 49.5974 43.984 9.33623 16.1019 300444 -55048.6 -111947 426589 -232239 50952.1 
48 1 35.8396 46.45 10.6951 0 -412950 299652 234399 -33276 -68528.6 219978 
50 1 37.2277 45.9342 8.71449 0 -236778 -428144 -190064 -42008.9 337172 326702 
45 1 37.7134 47.8445 10.247 12.0389 -649469 51219 -737063 218825 496846 -212887 
23 1 39.4322 45.9347 9.81508 7.71881 264677 938560 56433.9 506499 -128835 -346717 
62 1 42.4093 47.764 9.65296 10.7866 -860807 -583160 -461773 991487 -154838 -171303 
63 1 44.0051 46.1017 9.6758 10.2144 -777711 -801313 529062 512219 147604 240958 
66 1 46.0447 47.3886 9.85381 10.8245 551262 252118 -239890 -587584 179998 135073 
43 1 48.2756 45.9097 9.84892 12.4087 1.2824e+06 511151 166322 -211386 154318 201903 
76 1 48.4752 48.4252 12.2207 10.5966 -818370 -2.1125e+06 -3.35264e+06 711132 7337.26 197015 
52 1 40.2486 48.4463 10.3906 9.61802 254197 1.19746e+06 374302 1.1184e+06 253866 -227287 
61 1 44.4389 49.2802 10.024 11.0095 352205 -298699 -1.6018e+06 -252609 477125 -338634 
2876 1 49.5925 48.116 10.1916 0 628108 2.36892e+06 -1.11181e+06 -983076 513555 527212 
19 1 45.6882 35.6333 12.7131 0 -85713.1 -65834.4 176750 -194222 3875.01 1357.02 
22 1 48.0612 35.6656 12.2072 17.4352 88484.3 -168453 56950.9 -217634 370156 -79650.6 
18 1 44.4696 37.7332 12.2637 11.3885 325788 -221696 1.77175e+06 419084 -503986 -1.29387e+06 
21 1 47.5078 37.9867 12.4877 5.50657 -162790 -275163 -420088 -306166 1.07058e+06 231854 
2837 1 49.6544 37.8648 11.3674 4.56588 231584 -1.40854e+06 -1.33907e+06 34874.8 -2825.23 219504 
8 1 43.0467 39.5111 11.348 8.5974 69067.5 316766 700259 598469 -507513 -406774 
12 1 41.8238 40.9611 12.808 8.9119 -277405 383222 -1.14949e+06 260233 129890 -63073 
13 1 46.0125 39.9212 12.0126 6.50017 -421519 -377986 -821535 -514573 -140072 -534904 
41 1 49.2497 39.8409 12.9934 5.2727 -1.84818e+06 668437 -1.54896e+06 -38734.6 -633811 943851 
26 1 39.6632 41.8142 11.7883 12.9247 -138717 104917 472388 -274254 -552864 542253 
30 1 41.6589 42.9632 11.5651 7.91859 -1.03393e+06 -1.31377e+06 -2.03619e+06 144600 452247 -87609.4 
36 1 43.8118 42.4551 12.7388 7.42811 -373182 99477.5 -1.50668e+06 164873 -52569.7 -500284 
40 1 46.3473 42.2494 12.3002 6.50947 422146 -850284 1.00171e+06 81496.9 3008.25 183238 
44 1 48.8279 41.927 11.7453 9.20613 196812 -670507 -1.46045e+06 50531.6 -269204 390581 
49 1 34.9015 45.81 12.9458 0 -686580 -751981 206310 396640 30893.2 -444593 
28 1 38.6125 43.7216 10.9168 7.89885 -781450 307987 -248715 517009 -181163 -389625 
51 1 36.9882 44.9558 12.2217 9.65074 -511141 18470.3 180273 1.11296e+06 595217 211821 
27 1 40.1701 44.648 12.4469 8.51151 607523 804259 -492398 -98069.2 -127834 -1.90555e+06 
59 1 42.7833 45.0683 12.4357 6.06544 -237121 -909782 -1.76617e+06 132246 -1.55599e+06 -424846 
64 1 45.2885 44.3666 12.2864 5.2265 217119 -108669 -494890 221810 600876 -1283.18 
38 1 47.8563 44.2775 11.9761 5.48726 -1.50065e+06 -329802 -668360 150598 -30680.8 311985 
54 1 38.8466 46.8315 12.0473 11.3866 694740 742145 -236815 90449.6 -551820 152132 
58 1 41.3067 47.0792 12.2897 9.7231 699377 -153587 480633 -205249 1.59401e+06 -236145 
75 1 44.4711 46.8596 11.9179 8.30556 49255 612046 -39882.4 470459 360931 141131 
70 1 46.9458 46.5305 11.9821 5.07579 -340506 194105 -150391 164385 -235648 -228832 
68 1 49.4698 46.3355 12.0223 4.3982 -284179 -1.04339e+06 855688 825055 264588 -291348 
71 1 36.3171 48.5662 11.902 10.7664 -21721.2 140892 -776210 641434 824778 -586315 
53 1 38.7786 49.3143 12.2151 5.2941 891421 623704 132591 86564.7 160304 -110926 
56 1 43.0203 48.6406 11.6864 7.60192 -1.09652e+06 -481986 -1.68645e+06 -716608 386523 44517.1 
2851 1 49.8339 38.996 9.34061 9.83156 660710 594735 -636863 -108035 466685 101155 
90 1 43.5903 36.1807 14.0214 0 -108701 140690 92681.1 54257.4 -328230 -325855 
94 1 45.379 35.183 15.1705 16.0118 -1.33785e+06 -248275 -212078 -83194.2 -71901.5 502655 
98 1 47.3037 36.316 14.449 6.52078 -943612 135002 958351 -475009 -188345 -384805 
81 1 49.2641 35.3443 15.4535 11.6471 -1.58672e+06 -332824 -805604 333511 -84948 -269436 
20 1 49.7358 36.9188 13.5692 8.8337 255467 -947733 -995897 1.04771e+06 274078 -326313 
85 1 40.2852 39.2476 14.6733 15.3847 -449564 -369550 -342172 334172 307567 101197 
88 1 42.4148 38.4562 13.7506 10.1004 -8503.4 1.51224e+06 1.06272e+06 -536270 -458428 -890341 
84 1 41.4179 37.4371 15.9394 10.6708 171276 -43233.3 583618 -520355 503266 -651306 
113 1 43.8895 37.9613 15.618 10.1393 289462 140149 662893 270766 26836.2 226169 
93 1 45.8689 38.334 14.1289 5.99882 1.23146e+06 743824 159363 99466.6 526755 -410552 
97 1 48.5449 38.4897 14.8172 7.82021 609598 -234373 -487110 -454868 826921 -1.14172e+06 
105 1 38.1405 40.1143 15.4083 0 -798437 -713413 -467459 542583 280879 -347727 
112 1 42.1758 40.7544 15.102 8.36141 481355 115446 -636723 -91511.8 36737.6 -507485 
89 1 44.227 40.0537 13.4949 8.98737 -472879 -585372 796548 -788246 293681 -257131 
17 1 47.1704 40.6011 13.9995 7.47602 236338 1.1279e+06 -695783 -405054 621059 -173229 
100 1 38.2186 43.2106 13.4357 11.1161 906722 156947 1.19412e+06 239804 -875085 -82824.4 
108 1 39.8032 41.5018 14.1736 8.91216 805654 -334322 -588178 120216 91966 -29911.3 
107 1 41.7797 43.1953 14.0738 7.44872 876179 1.50452e+06 818794 -225400 739936 -957886 
37 1 45.1971 41.9923 14.5722 8.52972 -182014 -187883 -539606 -123788 -500650 241537 
120 1 49.022 42.307 14.1646 7.82311 670681 2.73356e+06 850732 -97410.5 -618060 1.08241e+06 
121 1 33.8878 45.1484 15.0453 0 402366 1.27549e+06 357128 -230877 48873.7 13718.8 
123 1 35.8809 43.9309 14.1719 0 597323 -46252.4 122792 -225537 -283572 33533.5 
103 1 38.6862 45.4332 14.2135 9.8277 -1.10365e+06 -510251 -1.17992e+06 -32830.2 1.1225e+06 202310 
111 1 44.0058 44.2754 14.4089 5.54503 -59706.3 -259934 -334185 86474.1 -238255 78769.3 
34 1 47.0647 43.9425 14.2385 5.11144 686464 1.10813e+06 405865 -176983 218283 443200 
67 1 49.4457 44.7178 13.9592 8.82228 831588 993171 -464749 -21730.4 220571 183429 
130 1 36.8934 47.052 13.703 6.68677 -225249 3835.92 860019 266307 -292217 -72964.3 
55 1 41.1115 45.7321 14.3119 8.24291 -1.35697e+06 -1.11025e+06 -2.4272e+06 -190653 -1.51975e+06 -389922 
134 1 39.8133 47.8023 14.0593 7.35548 -33348.5 -330852 -265502 318006 286891 -442518 
138 1 43.2263 46.6619 14.0797 7.72999 -821954 -2.3723e+06 -380189 -1.07926e+06 1.21198e+06 -498528 
142 1 45.7031 46.1484 14.1121 4.04474 426029 754255 84638.6 -440499 -274440 -320083 
146 1 48.0621 46.9699 14.1698 6.03486 259601 426876 -498494 -593922 -172316 489006 
126 1 34.6992 47.9757 13.7847 0 -327981 -576486 53708.5 302423 88481.8 81839.4 
129 1 37.7367 49.1735 14.4235 9.11656 315927 12129.7 -455656 339918 -85784 -492254 
133 1 42.1517 48.8258 13.8945 8.05962 -174118 -1.03806e+06 1.38893e+06 152882 -367137 1.71161e+06 
137 1 44.6353 48.5582 13.7121 7.31232 -1.16875e+06 304003 75426.7 -953543 264552 324858 
141 1 46.8948 49.2529 14.0816 8.89529 -286606 240753 144943 -784457 -269791 -563900 
69 1 49.5671 48.9855 14.1229 4.86481 -118711 822281 -1.10784e+06 -780734 -773604 -89972.9 
78 1 46.8546 32.7126 17.49 0 171432 41781.7 -242766 560481 123754 -58844.4 
77 1 41.6369 34.8878 18.0874 0 419914 -13978.5 246215 -436630 61810.3 -80498.5 
79 1 44.9744 34.1998 17.4697 12.2818 -520931 -768588 -484688 459125 -139663 81024.7 
80 1 49.3173 33.4293 16.9644 0 -43227.4 129200 -488577 -236858 417243 -184684 
82 1 40.1182 36.8058 17.7863 17.3011 165115 432387 -285932 -429982 -41615 99451.2 
87 1 43.3393 35.6858 16.5221 12.1653 175539 190221 -238127 -37491.3 270025 -495447 
163 1 42.6703 37.083 18.3179 9.16482 -794612 -1.45167e+06 -1.52012e+06 -61339.5 521142 -828134 
95 1 47.2545 35.1072 16.8055 8.34388 -679693 617108 1.63038e+06 -269198 -352.971 -694248 
101 1 37.2937 38.8945 17.4177 0 7165.08 107110 536745 -575591 441988 -790728 
83 1 39.6938 39.0995 16.967 8.28568 -7249.13 580705 -342503 -376118 -291358 506727 
164 1 44.5606 38.7808 18.1522 7.46693 791997 -35954.6 2.42554e+06 -248674 -713814 151879 
92 1 46.0368 37.2745 16.5007 8.13386 821873 165755 685060 -248697 -296831 664842 
96 1 48.6503 37.1409 16.8944 8.49703 941402 -154735 97179.6 521274 -309669 -616872 
104 1 36.3338 41.1507 16.5753 0 -964743 1.07043e+06 -257809 -603431 796746 252067 
177 1 38.2659 40.9422 18.1558 8.41345 152798 184933 903189 -943479 -340518 -279007 
181 1 40.7807 40.8933 18.3035 10.2228 100575 -670732 -311745 224007 137971 -117438 
109 1 42.261 39.273 17.1744 6.71941 -836077 -1.19181e+06 -390091 -1.00223e+06 -248786 -984361 
116 1 44.3879 40.3362 16.0462 10.5092 -314054 -494505 1.03867e+06 -300911 416795 556595 
189 1 45.8795 40.9305 18.1177 2.97569 321532 1.14154e+06 1.27522e+06 60937.3 -232450 189269 
117 1 46.6948 39.5623 16.115 8.49969 -900871 -882936 -1.41327e+06 -564927 -44593.3 661660 
2924 1 48.8953 40.4195 16.1183 6.42635 -1.92713e+06 -1.37904e+06 455488 -260755 724379 -1.7346e+06 
99 1 35.1327 43.4671 16.5099 0 570662 1.05563e+06 482859 -428439 206517 -235470 
175 1 37.0888 43.2401 18.0744 8.70731 -1.02035e+06 -83244.4 200199 -55871.3 362074 134254 
102 1 38.1674 42.4322 15.9617 7.92098 -356922 -304229 1.61601e+06 -485631 737103 -438923 
106 1 40.7438 42.2571 16.2578 6.44959 714807 -381984 -283828 168193 19890.3 -663062 
110 1 43.3529 42.5884 16.1886 6.11396 976846 -210826 306840 275173 113985 -383845 
114 1 47.1677 42.0672 16.1292 6.53427 -336596 -1.30979e+06 1.00377e+06 112673 496210 -1.2193e+06 
190 1 47.1106 43.321 18.2569 0.598223 129609 -752439 568882 717509 -1.54266e+06 -814666 
199 1 35.6199 45.3641 17.9318 9.88554 612931 544801 863956 -220302 -87270.7 133678 
127 1 37.3025 44.7422 15.8516 7.89091 -605742 -288861 -607338 -348422 74096 391130 
203 1 38.1529 45.3753 18.0792 5.93153 279811 350808 754129 -831891 -277753 -480722 
131 1 39.7505 44.4799 16.1847 4.99266 -756224 440331 500429 471809 -762675 -259575 
135 1 42.1495 44.7492 16.2537 5.64843 -58671.8 1.01128e+06 -743561 -857703 -512142 655469 
115 1 45.5908 43.8883 16.3359 4.36542 -101472 -473871 -774045 169787 100748 -382089 
143 1 47.1969 45.7102 16.1406 4.01572 -1.44214e+06 -4695.77 124663 218844 -396183 1.23951e+06 
215 1 45.7165 45.4108 18.1568 0.831744 -643913 -1.25984e+06 -497093 -225389 -33208.1 -323330 
118 1 48.6927 43.8371 16.1756 3.42937 -455356 -1.23002e+06 291906 155208 -1.4512e+06 -489646 
219 1 48.3644 45.3941 18.198 0.36704 -666862 -519431 43840.9 235521 -947250 -30221 
122 1 33.4293 47.6415 15.7496 0 579243 1.20854e+06 135729 217659 291964 375169 
124 1 35.7186 46.5963 15.82 9.04833 526453 344275 590192 123124 -658429 387483 
200 1 36.8497 47.6767 17.866 5.41686 -202989 532388 1.46226e+06 -121390 958102 -347267 
128 1 38.2365 47.0849 16.0011 5.28672 -204726 -435352 598371 -47605.1 402741 -630315 
132 1 40.7122 46.9369 16.2501 5.99692 207996 1.49748e+06 -1.51238e+06 -1.04461e+06 13179.9 -593630 
139 1 44.2106 45.9882 16.3005 4.91602 -42573.4 -134030 -501833 -92324.8 -153260 -229424 
140 1 45.8814 47.767 15.8489 8.60715 -220968 -1.45225e+06 49240.6 1.30806e+06 245772 -773255 
144 1 49.5478 46.282 15.9754 1.56084 4362.88 -289432 1.04508e+06 -158313 -841387 -312814 
147 1 33.7008 49.855 16.8652 23.3873 -479046 808061 21181.8 700902 -235375 -622229 
125 1 35.7159 49.101 15.9278 6.32834 -765.579 506719 546142 162766 944261 -656521 
149 1 39.379 49.2022 16.3294 7.56759 -901904 -313383 -730909 -617411 -126467 -50493.7 
136 1 42.8006 47.9553 16.1353 6.3642 -740637 -48523.6 -642170 -557113 235706 105017 
151 1 44.5201 49.5033 16.1368 6.13458 -1.27318e+06 -2.43514e+06 73679.4 1.22173e+06 189831 323525 
145 1 48.3476 48.4858 16.2022 2.30008 373654 -21319.9 -909410 -385092 212610 33033.5 
91 1 43.5101 33.7529 19.2441 0 913689 428454 95692.4 -249552 396379 331962 
154 1 46.0509 33.5599 19.5572 0 716506 -292035 -952830 -129444 -204928 -318548 
156 1 48.4443 34.2921 19.0039 10.6183 161607 -376072 -631369 252319 118824 -339923 
86 1 42.2949 35.8071 20.2789 14.9053 792277 124894 520696 -237219 270804 676508 
167 1 44.9159 36.286 18.4148 7.55152 -21809.6 -672513 -4225.18 89601.5 147707 -36588.3 
153 1 44.7917 35.4661 20.6044 10.3068 493124 581506 153999 310201 197052 271036 
171 1 47.2835 36.3912 18.9396 8.95355 -294731 -581833 569126 196122 -69051.5 -9340.19 
2980 1 49.7142 36.5677 19.0832 9.42401 -594111 341534 804756 24831.7 -229158 -281479 
158 1 38.5444 37.6637 19.4356 0 528944 961742 1.16492e+06 -354127 780566 -74996.3 
160 1 40.9805 38.5675 19.1335 5.88546 -368307 -1.18255e+06 -557373 -309032 340574 -8439.85 
166 1 43.1506 38.0837 20.3792 6.6288 828573 -833181 -365357 -236316 -531953 -1.18882e+06 
170 1 45.7606 37.8448 20.2901 5.76037 1.1877e+06 1.37454e+06 1.02618e+06 182677 328204 -161373 
168 1 47.1625 38.7222 18.2511 7.18968 474321 243362 -579150 410155 -174203 659181 
172 1 49.6384 39.0067 18.2401 8.07396 -210505 111293 472051 -273378 630846 -1.15926e+06 
174 1 48.3954 38.0974 20.4083 7.27378 -55172.7 -43556.1 -594113 -9193.35 51302.9 -252375 
159 1 39.227 39.964 20.2759 8.47386 793289 1.58663e+06 1.00194e+06 13822.2 171085 -44090.5 
185 1 43.2909 40.9694 18.288 7.01614 -59742.1 -1.07274e+06 -319212 -473677 -568280 -1.01156e+06 
161 1 42.0247 40.3346 20.4082 7.54097 -675070 -904207 167819 125045 -204146 -504956 
165 1 44.4973 40.2243 20.345 5.78162 -193856 436412 331265 12762.7 -49890 251212 
169 1 47.0383 40.2806 20.3653 5.80165 102937 557052 -130001 59902.8 -55205.4 -51679.3 
193 1 48.3202 41.1641 18.3329 1.87419 -103715 -291631 450304 434325 903873 -982895 
173 1 49.6373 40.2985 20.4227 5.89654 -306886 -196752 -677788 44677.4 283248 66575 
180 1 38.0966 42.3744 20.2816 10.4164 -424937 -36243.4 72166.6 -513506 -114940 170806 
178 1 39.4889 43.0941 18.2925 5.39326 -1.25658e+06 169050 -417721 -199227 470358 222745 
184 1 40.5751 42.2501 20.3402 5.14533 200723 1.46808e+06 -219434 -140847 -785382 -274184 
182 1 42.0118 43.2191 18.1933 6.54615 -788969 -151311 492264 78409.7 -745278 -201136 
188 1 43.1667 42.4407 20.2886 6.04936 -59704.6 -988313 -217722 -335609 263216 -44604.9 
186 1 44.4758 43.2405 18.3847 4.36236 -638395 -359057 -950685 -446273 197097 307469 
192 1 45.7095 42.4799 20.3645 6.08737 -55780.2 -8994.42 -186846 170434 -443137 201990 
194 1 49.6013 43.2593 18.3236 1.91389 -1.61937e+06 -938814 -1.22021e+06 343740 91975.1 -84492.4 
196 1 48.3547 42.5066 20.3947 5.77023 254548 -142419 -839802 121943 -15248.9 -60450.9 
176 1 36.6682 44.4844 20.1781 10.218 429983 508073 1.02863e+06 -5361.37 -22750.6 -228080 
207 1 40.6728 45.4304 18.3381 5.45952 182120 -60452.9 114686 245760 -144559 -320674 
179 1 39.133 44.6035 20.3012 4.9526 750227 978162 553894 -774092 916289 216201 
211 1 43.2502 45.3082 18.4291 4.91172 -246678 321963 -897018 51890.7 -134507 -73394.2 
183 1 41.8415 44.5201 20.4882 5.79331 826531 354858 108700 172565 -82231.3 75393.6 
187 1 44.5022 44.6691 20.4154 6.06017 -103807 -570978 -750919 153746 -299647 -88617.5 
191 1 47.0275 44.6721 20.3045 5.85552 409815 -29453.5 -264898 -9777.39 131866 -96940.2 
195 1 49.6856 44.7743 20.2413 5.49878 78130.4 -198679 -244492 -246204 -256995 -316810 
197 1 34.4188 47.6892 18.0651 0 -75617.6 570649 703188 -510571 -269145 319086 
202 1 35.5235 46.7761 20.0787 9.27034 99851.1 88815 957838 -360320 -848395 384099 
206 1 37.9097 46.7851 20.2192 5.16013 -223179 -42482.6 827865 16805 320425 -203712 
204 1 39.3712 47.5721 18.3262 6.22695 -267413 -847310 -378940 -52171 89070.6 -148871 
210 1 40.5618 46.7753 20.4176 5.9777 21919.6 476910 -614897 284050 17695.3 -239521 
208 1 41.9421 47.65 18.3175 5.69657 3077.34 -27450.8 -378237 -448067 196688 -130483 
214 1 43.0749 46.787 20.4762 5.55264 55684.8 365590 -354680 92623.6 -103319 -339793 
212 1 44.4526 47.6482 18.0776 4.12274 47693.3 -26381.5 240125 394693 -114278 -225906 
216 1 46.9494 47.5262 18.0983 0.771596 -611160 561850 1.05881e+06 -342202 -130564 867230 
218 1 45.6045 46.9043 20.2674 5.36392 347406 39194.9 415939 -14152.4 71543.9 58316.8 
220 1 49.4351 47.6585 18.1864 0.355985 -38338.7 -45310.1 -345511 160053 -218896 211460 
222 1 48.1685 46.9259 20.2956 5.63212 137830 93161.7 47136.6 -117097 -41450.1 -85560.2 
198 1 34.4412 49.0171 20.1629 15.8548 -517309 86314.8 -338321 318627 -18247.4 119257 
201 1 36.8349 48.9763 20.2714 5.37076 -1.42066e+06 -164692 -143680 169136 -189653 762374 
375 1 35.3439 49.9944 26.4113 7.69322 -319982 -691671 -282542 -224382 -140924 71308.6 
224 1 38.0975 49.8249 18.313 4.08026 -900577 -75839.3 -953494 169684 185116 173628 
205 1 39.2658 48.9818 20.4044 5.80658 -753505 -20166.6 -777628 -154451 -75207.5 -47084 
225 1 40.6478 49.7116 18.3553 3.84314 -1.23357e+06 -493342 -1.3658e+06 -499306 60843 26599.6 
209 1 41.8482 49.1553 20.4666 5.98918 -179673 67242.6 -602506 83755.8 -449744 -18046.6 
226 1 43.0914 49.7739 18.1673 3.53438 -1.15634e+06 -904737 76692.5 -84998 35365.1 191009 
213 1 44.3763 49.0519 20.3419 6.01589 304951 447583 635920 183652 263830 255832 
217 1 46.9745 49.1088 20.2765 6.13891 197261 312291 -305488 114640 -26724.3 386870 
227 1 45.6371 49.8179 18.2463 1.66299 -555684 -199381 -365743 -455371 -40984.2 -87011.2 
221 1 49.5164 49.1475 20.1708 6.0018 -165327 29841.7 -507245 -119664 -113797 112494 
228 1 48.1241 49.8267 18.249 0.441357 -330991 -288076 -712135 334891 94213.3 -154776 
230 1 48.4955 34.2954 23.0343 0 442842 -621.016 179010 -38693.6 65614.1 -6842.65 
157 1 49.7905 34.889 20.8841 8.8465 234785 340179 -31141.9 -280482 -701391 -16119.7 
239 1 43.6026 36.6142 22.4469 0 -36338.7 -386934 1.01228e+06 -200909 390558 262403 
155 1 47.1607 35.008 21.0459 11.8223 76830.4 -182606 58327.2 -166757 19142.1 -771063 
243 1 46.0694 36.5461 22.5457 6.76713 445758 620095 1.10904e+06 -269173 238968 -372882 
247 1 48.6102 36.6923 22.3831 7.09412 -402787 -865156 309041 -269666 120840 81939.8 
162 1 40.4969 37.2544 20.9884 14.3207 728240 212151 265103 -278062 325288 278144 
234 1 39.3874 38.7465 22.5425 0 -87269.4 20252.3 180445 -131346 -42671.9 -223541 
236 1 41.9523 38.5561 22.3869 8.2227 208682 1.26451e+06 479618 112774 384172 -325689 
240 1 44.5714 38.7799 22.4426 5.26198 271833 -334653 291338 -529138 -216143 -338568 
244 1 47.0959 38.8132 22.4282 6.17245 -139860 -315400 -23784.4 146027 88186.1 62672.1 
248 1 49.642 38.8683 22.4712 6.19309 -919100 -633099 -1.3048e+06 -770828 21566.6 -50952.3 
253 1 38.1677 41.0297 22.3502 0 83728.8 629806 150814 -224678 -19662 142215 
257 1 40.6262 40.8719 22.3845 6.12179 253707 166092 727411 -94818.4 -128053 22426.5 
261 1 43.2878 40.9352 22.5228 5.28198 139607 337999 -244828 374026 -161113 -89846.4 
265 1 45.7924 41.0431 22.4456 5.89543 -325160 -483402 -573547 16698 22406.9 -77423.9 
269 1 48.3043 40.9961 22.3653 6.32984 -497841 -553145 -1.10437e+06 -62150.7 14875.9 -115692 
251 1 36.7311 43.2629 22.3942 0 -392100 383341 477245 -224101 -153750 -16726.4 
254 1 39.4165 43.2106 22.4087 4.8096 -722710 15743.4 -215471 -62929.9 4271.49 76584.8 
258 1 41.9177 43.0742 22.527 6.31349 72700.6 -177994 -477772 61218.8 -206164 125179 
262 1 44.4896 43.2295 22.4637 6.29465 -471104 -384781 -248273 452593 -53387.4 94212.6 
266 1 46.9213 43.2937 22.3772 5.74891 -529575 -256129 -638288 -192888 -60309.7 -74619.6 
270 1 49.4926 43.3007 22.456 5.50825 -244668 -610195 -671539 -7298.34 166137 30775.7 
275 1 35.6421 45.4517 22.3291 0 -609600 38622.7 608559 -557608 9390.87 -257882 
279 1 38.0556 45.3043 22.3677 5.30694 -1.13837e+06 325421 -261287 -260718 606384 223599 
283 1 40.5628 45.3608 22.5311 6.44279 -195426 -555852 811674 355446 777102 542951 
287 1 43.1497 45.313 22.4732 6.44935 119708 -370505 -313954 185867 -168407 141834 
291 1 45.786 45.5516 22.4083 5.55171 141920 -354385 -303177 -140168 -68197.5 -130237 
295 1 48.3299 45.4355 22.4148 6.39554 -214796 -352882 -26903.4 74652.3 -70305.4 -26218.9 
273 1 34.2374 47.7439 22.2889 0 453171 507417 1.11957e+06 -700242 -296889 337592 
276 1 36.7495 47.5942 22.3214 5.07254 -5420.83 -591987 43017 -396762 -252835 115800 
280 1 39.2601 47.4595 22.3821 5.77023 221787 -127385 -27584.7 284335 114606 173292 
284 1 41.8866 47.6276 22.4314 5.78613 -593195 -53544.6 -758817 102122 19611.7 -222507 
288 1 44.2956 47.6093 22.4778 6.20864 -736825 -216344 -500797 117304 -321998 -132344 
292 1 46.9261 47.7456 22.3744 5.98022 -82612.7 -484567 -458394 -132222 244187 137109 
296 1 49.4584 47.6989 22.2699 6.48275 3412.06 -80904.6 -150678 138775 -3293.86 -53447.2 
378 1 43.0311 49.8883 26.6333 5.90986 23393.5 -61629.4 693649 268747 136786 11245.6 
300 1 37.9449 49.7663 22.3816 6.01401 -507473 41475.9 -425820 -118111 49720.3 -102159 
301 1 40.4331 49.8574 22.4156 5.46136 43313.1 71653 -712720 13795 -26391.1 -39978.2 
299 1 35.4694 49.9036 22.2633 7.40047 -16633.6 30045.8 714684 -338500 -437021 -151908 
303 1 45.6664 49.8611 22.5259 6.61408 100777 -91089.8 -166611 235966 -199715 371686 
304 1 48.2507 49.8698 22.3555 6.19142 1538.97 118014 310833 130459 -162012 55603.8 
229 1 44.5985 35.9062 24.6267 0 461211 52206.5 292298 -115552 -342162 -107617 
231 1 47.1531 35.5683 24.6067 11.3983 559200 1.01971e+06 586700 69207.9 208606 -349613 
233 1 49.6549 35.8602 24.6275 6.2657 1.0163e+06 461905 1.33714e+06 -96331.7 399560 409760 
238 1 40.635 38.2608 24.5831 0 -488076 -608600 -459364 48590.1 -237438 -95400 
242 1 43.1392 37.9661 24.6037 7.16459 131935 511721 331116 187358 -83331.9 -355466 
246 1 45.7636 38.1074 24.6419 6.1772 278313 -158008 852571 130373 6739.76 -56942.1 
250 1 48.3484 38.0206 24.4615 5.082 231922 647482 -405700 213048 50830.2 146063 
235 1 39.1579 40.1955 24.5691 9.43918 210181 -763312 -313648 500040 -291600 -360300 
237 1 41.9164 40.2625 24.5261 6.20281 18091.6 -617700 604644 -327986 195511 81251.4 
241 1 44.4349 40.0866 24.519 5.53054 93968.4 492417 -321151 224427 -113117 39447.1 
245 1 47.0377 40.2921 24.4874 5.75284 -152710 -180599 -444415 -176938 28291.3 -58238.2 
249 1 49.5534 40.276 24.4682 5.66354 -176290 -410447 -851155 99354.5 27666.7 -47485.1 
256 1 37.8788 42.2939 24.474 11.2137 363491 -47221.2 290370 91947.1 53094.2 76430.1 
260 1 40.4428 42.272 24.5312 5.10196 506428 756080 221581 -75248.2 134180 49598 
264 1 43.0596 42.4477 24.5791 5.95246 619341 225388 -234871 -107278 -183069 23270.7 
268 1 45.7205 42.4572 24.4795 5.4751 358060 33147.2 -674932 187386 -215122 -129803 
272 1 48.3345 42.4539 24.3831 5.82406 -53519.6 -531018 -525481 -6182.48 330388 28655.9 
252 1 36.7178 44.5215 24.5117 9.52615 77312.5 351745 -542334 -135065 235510 -156609 
255 1 39.1369 44.636 24.525 4.87649 864419 845644 341342 -276115 10749.4 -23863.5 
259 1 41.8532 44.5435 24.5344 6.21813 998294 686970 -150210 19.5597 6585.93 -42582.9 
263 1 44.5501 44.6999 24.4749 5.87982 284868 233342 -243265 175100 -74823.7 50012.2 
267 1 47.0509 44.6133 24.4969 5.16248 -196637 159914 -528932 -659155 -555512 416206 
271 1 49.5512 44.7103 24.5114 5.82695 -322298 -160155 -615837 61327.6 11842.7 -20854.4 
278 1 35.379 46.7003 24.4274 8.95236 -88896.2 840320 1.3017e+06 447389 -58943.2 250501 
282 1 37.7374 46.8804 24.5666 4.82563 -164101 398271 102307 -20532.7 148002 -145938 
286 1 40.3952 46.8941 24.5718 5.39762 864277 821299 -265031 -258225 70761.7 -7998.13 
290 1 43.027 46.8458 24.5272 5.71717 736393 336295 -73668.8 176759 17417.5 248966 
294 1 45.6786 46.9926 24.4517 5.85706 420939 844608 -93455.4 -370202 -117632 -99999.6 
298 1 48.2183 46.9163 24.403 6.044 301046 602729 283885 158004 -33633.6 -4864.67 
274 1 34.2898 48.9498 24.4419 0 -1.35276e+06 -37844.3 9229.48 238620 -439183 -142686 
277 1 36.5795 49.1428 24.4168 5.76601 -1.20132e+06 1.49083e+06 -270576 168178 187754 196635 
281 1 39.1428 49.0938 24.4791 5.86979 156064 299792 280285 159173 7411.73 145305 
285 1 41.745 49.0185 24.4652 6.07246 284383 374604 308935 582574 82425.6 -94650.8 
289 1 44.3016 49.12 24.5058 6.071 226794 403730 -459454 9127.02 -163944 53962.5 
293 1 46.8978 49.22 24.4942 5.95021 354487 563902 -244907 168967 -183701 -202.698 
297 1 49.4815 49.2994 24.4028 5.69866 517689 970173 390668 85916.6 -285575 -59311.7 
306 1 47.401 34.4983 26.9157 0 628070 -230017 260541 -85088.2 -51573.9 -163627 
380 1 48.2141 49.9856 26.6341 6.3248 -135153 -401569 223817 265507 -193563 197823 
315 1 43.3764 36.5974 26.7725 0 -152749 -38074.4 -255927 112273 -251336 -195098 
319 1 45.8771 36.4414 26.6366 8.5046 -88579.6 412232 200161 3147.75 -185779 -195232 
323 1 48.3689 36.7514 26.6337 4.88051 201989 -1.07354e+06 381916 -109683 301676 -76307 
310 1 39.3647 38.7568 26.5812 0 -51479.4 -174483 373492 86883.3 193410 436271 
312 1 41.9108 38.6142 26.6141 7.6043 -13829.6 784428 -295359 293473 -123297 84567.7 
316 1 44.5722 38.7792 26.7848 6.49645 -68728.9 200177 -274022 -134402 -128565 -83758.3 
320 1 47.101 38.9009 26.6631 6.14656 -237205 -513970 351299 7154.39 259258 -2568.61 
324 1 49.5668 38.9137 26.5592 5.31111 -242603 -1.06984e+06 801345 -392121 776631 -320467 
329 1 38.2114 40.9718 26.6595 0 -453025 -195646 128393 69687.2 117471 133439 
333 1 40.6697 40.874 26.6254 4.99716 -283387 -256908 188526 -87425.4 -325331 -266213 
337 1 43.2149 40.889 26.6698 5.70406 578161 844487 -24.6343 329574 63960.4 25289.1 
341 1 45.8624 41.0067 26.5924 5.7715 39753.2 -154840 236489 144773 170668 -67099.6 
345 1 48.3313 41.081 26.5619 6.05174 -924153 -493278 233752 46020.7 967.271 -38210.5 
327 1 36.9635 43.1827 26.7033 0 -695385 62926.7 -145997 48095.2 -218550 150697 
330 1 39.3634 43.1299 26.6159 5.27583 -357454 279852 609641 48192.2 -684776 -367664 
334 1 41.8655 43.1073 26.6958 6.41895 22638.4 321724 -367803 36856.6 17006.9 -62090.5 
338 1 44.5241 43.3341 26.5874 5.90378 369517 9515.28 -225196 195640 55424.9 33298.1 
342 1 47.053 43.2596 26.443 6.84607 -336163 -267341 272311 -395365 115846 928512 
346 1 49.548 43.2858 26.5816 5.80845 -133521 -118320 70596 -17729.3 103794 66808.4 
351 1 35.5509 45.3052 26.5423 0 643673 1.74425e+06 160985 -882804 29521.2 47600.8 
355 1 38.0609 45.4782 26.6626 4.82117 214229 81767.3 -865238 -892462 -86120.6 -87656.9 
359 1 40.6015 45.4336 26.6101 5.73305 231221 179343 82753.4 -16192.3 -21100.3 223037 
363 1 43.1885 45.4121 26.573 6.59117 -45701.5 185770 117334 273070 -90962.1 136692 
367 1 45.6864 45.5128 26.6766 5.96263 -491853 6896.74 331176 -665601 -100425 250995 
371 1 48.1833 45.4396 26.5264 5.48136 -270146 -412695 -202730 -129390 41287.7 -175469 
349 1 34.1547 47.7669 26.5558 0 261125 1.18741e+06 554602 -1.24484e+06 -302387 465978 
352 1 36.5936 47.7657 26.5239 5.55843 -179851 399668 584436 -40296.5 468781 22877.2 
356 1 39.1884 47.5795 26.6148 6.24186 -1446.22 -496902 -250983 -375203 284293 -52628.7 
360 1 41.7947 47.6311 26.6756 6.38992 306642 7389.69 113767 -12105.8 9898.68 -147119 
364 1 44.3929 47.7229 26.6462 6.29431 513043 -24805.2 249084 -130246 178356 86165.9 
368 1 47.005 47.6527 26.5943 6.31558 430884 379686 684835 -57606.7 42878.4 -3921.71 
372 1 49.5335 47.7181 26.5984 5.98393 256217 26724.5 389867 -28130.9 188052 -336398 
379 1 45.6077 49.8859 26.5366 6.20184 327741 221934 409105 -299388 102629 -78613.8 
376 1 37.9434 49.875 26.6064 6.21546 -332136 -324193 -190748 -310135 178157 53447.2 
377 1 40.4972 49.7803 26.6482 6.22014 -99799.3 -443502 147279 227476 62530.3 81145.9 
308 1 49.9599 34.5691 26.6865 23.0649 134253 -755995 527319 185708 -279252 105406 
223 1 35.7055 49.8901 18.2349 5.34007 -960479 -489893 -873123 209169 -321533 360971 
302 1 43.1207 49.808 22.4381 6.02014 90237.1 1378.01 -453532 -110489 -428075 123722 
305 1 44.5564 36.045 28.7767 0 237648 -293094 -82742.9 390338 -89005.4 119884 
307 1 47.2265 35.9842 28.8308 8.2586 234368 16458.8 232953 57964 244823 -816046 
309 1 49.7196 35.8115 28.8603 6.83388 214201 310358 1.08985e+06 -137687 283198 -409534 
314 1 40.6372 38.3255 28.7813 19.1973 75188.9 -410474 590871 78336.8 26921.5 -28931.5 
318 1 43.1675 38.0275 28.7412 7.53287 1.3751e+06 -279902 -512530 493559 245307 -293856 
322 1 45.9249 38.1799 28.759 5.89653 1.27816e+06 -328980 -639979 4210.71 86641.5 137891 
326 1 48.5695 38.035 28.7803 4.96445 36721.4 135623 131720 -359044 73898.1 11888.2 