ITEM: TIMESTEP
30000
ITEM: NUMBER OF ATOMS
5538
ITEM: BOX BOUNDS pp pp pp
0.102528 99.8975
0.375086 99.6249
-1.38012 101.38
ITEM: ATOMS id type x y z c_csym c_2[1] c_2[2] c_2[3] c_2[4] c_2[5] c_2[6] 
4 1 49.0171 37.6834 7.23509 0 -92123.2 74414.7 197788 119398 -56027.1 164619 
10 1 44.3026 40.5589 8.41444 0 190413 10242.6 -709420 -81896 -260769 -334174 
47 1 38.9268 44.6564 7.91991 0 -501917 -73842.8 -275381 271084 -336095 256750 
60 1 44.2918 47.9546 8.21334 0 -902111 -517931 -882873 55572.8 -152861 -219431 
3 1 46.0999 36.8023 10.6067 21.3836 -28149.8 -130633 253216 412256 -58164.7 162707 
5 1 48.3618 36.2358 9.96928 17.8577 -575990 320793 -648907 -155972 358954 124244 
2 1 47.4087 38.3889 9.07563 12.9411 1.71418e+06 246720 -63795.3 360724 -541193 -389853 
29 1 40.4832 39.5862 10.9409 0 1.4847e+06 -187060 -944863 96993.7 366711 -45449.9 
6 1 42.0439 39.6377 9.11013 0 1.06791e+06 697200 -372218 -568561 8021.76 156069 
15 1 45.1564 38.8988 9.98935 10.9442 280638 -710021 59221.1 467443 -461738 -609416 
1 1 46.6872 40.6819 8.78099 0 838108 518114 453264 699225 169848 -1048.77 
16 1 48.1286 39.8986 10.7148 4.62815 -471178 771920 171988 466218 -530220 -988743 
65 1 45.9935 49.005 11.7372 9.97913 -314497 292886 -741554 551960 -433150 -133166 
25 1 37.9618 42.7324 8.91719 0 813928 39272.8 -842099 271672 49420.6 -376633 
7 1 39.8856 41.2078 9.16436 0 1.64138e+06 710858 1.13641e+06 -719640 -164897 346212 
9 1 42.3169 42.105 9.21082 13.0185 804356 288004 553854 -108648 78887.8 -13990.7 
33 1 44.4635 41.2907 10.6231 6.79299 289880 -729161 -725989 -424088 1.25951e+06 -266532 
11 1 45.2613 42.7872 8.96683 0 -408823 992343 254913 483836 237749 1.29613e+06 
14 1 47.375 42.8181 10.1533 8.76592 -675724 -1.01008e+06 224553 1.13113e+06 -292603 -125918 
2854 1 49.1876 41.6181 9.13642 0 1.71518e+06 618295 270737 962259 670821 117060 
24 1 36.3232 44.1179 9.87596 0 -161813 209309 443493 61972.3 274806 423102 
28 1 38.5517 43.7305 10.905 8.14111 -824303 -500323 -1.11423e+06 -365517 -727762 -617489 
32 1 40.42 43.5908 9.34859 0 382241 -121838 -387093 1.10924e+06 -89058.3 460154 
31 1 41.7144 45.557 10.3292 10.8071 -39952.3 946688 246677 215346 -506680 522081 
35 1 43.5389 43.756 10.487 10.3536 -114085 400323 311094 -569897 148515 38155.7 
39 1 46.2703 44.8452 10.1441 9.84403 -633247 1.82154e+06 843870 1.86625e+06 -58165.2 1.64633e+06 
2853 1 49.3806 44.0941 9.51041 14.0101 -1565.07 773286 -1.00899e+06 793978 -497965 171129 
50 1 37.1318 45.9682 8.74121 0 252224 -247112 41692.7 -122693 93102.6 77594.1 
48 1 35.6864 46.4841 10.7767 0 457366 1.06599e+06 323532 299039 -195204 537601 
23 1 39.3726 45.8481 10.0325 9.85813 -521114 861655 424145 814541 431332 -311732 
63 1 44.1325 46.012 9.83323 10.2195 -584104 -262918 259859 -159748 74157.3 423852 
66 1 46.0285 47.4598 9.74988 12.3542 181869 2.28016e+06 -392591 -1.44431e+06 -557827 -102545 
43 1 48.3294 46.2746 9.87563 13.8303 759035 788336 -59662.5 123066 -5247.68 168175 
45 1 37.8492 47.7447 10.2158 15.1675 -522525 -1.39692e+06 250979 -43402 -316223 299556 
52 1 40.2235 48.311 10.5132 8.97926 -782208 1.79832e+06 439108 496923 753849 835985 
62 1 42.3874 47.7338 9.60594 13.3211 -3672.67 634803 -118297 655515 530194 202935 
61 1 44.4056 49.4709 10.0877 12.1538 1.07646e+06 1.10807e+06 -1.55969e+06 -536487 -292962 -99494 
2876 1 49.5702 48.4582 10.0403 19.0684 -551167 647710 -708736 107431 150491 218021 
19 1 45.5424 35.4829 12.5448 0 178717 201243 644954 -279703 -227022 -3170.99 
22 1 47.937 35.4001 12.1016 0 299801 -297509 -580299 1154.08 -176746 150603 
18 1 44.4809 37.7799 12.2489 10.0634 179116 939573 597490 -152926 154832 319429 
21 1 47.5449 37.7874 12.2448 8.23467 -534870 1.12165e+06 519862 441998 113727 -646649 
2837 1 49.6376 38.0546 11.0205 5.40775 -388838 -1.19852e+06 -794756 92368.8 566018 53829.6 
76 1 48.4772 48.5959 12.1095 10.2717 -523580 -1.14349e+06 -1.91374e+06 43296.2 -280976 334586 
8 1 43.0811 39.5958 11.2858 7.25682 1.20376e+06 -728439 -535920 11824 652684 -110352 
12 1 41.6353 40.7977 12.7043 9.02848 -574338 458320 -1.14286e+06 519973 594537 -706130 
13 1 46.0197 39.9203 11.8749 7.03638 622440 326854 -3596.96 -505903 -783576 -313424 
41 1 49.1042 39.6538 12.9664 7.09791 -1.01624e+06 -900188 -1.07324e+06 443928 -249789 -378779 
26 1 39.4529 41.7236 11.788 12.9055 289695 168882 1.69697e+06 21061.7 -568441 611229 
30 1 41.4721 43.011 11.4767 7.10053 -564588 -27653.6 -944726 652248 32203 -400482 
36 1 43.6156 42.3011 12.6443 9.41764 -248307 1.10066e+06 302422 1.33805e+06 -285236 420000 
40 1 46.1142 42.3368 12.302 6.73764 283371 159396 321826 221468 620527 751881 
44 1 48.7016 41.9716 12.0976 9.47448 1.04124e+06 828063 -444006 95468.2 -69204 -151037 
51 1 36.9544 45.0317 12.2264 8.82443 -669712 203190 410068 946800 526398 251785 
27 1 40.1561 44.7015 12.2772 7.19939 -30175.2 -1.35959e+06 474471 354712 -1.09329e+06 -1.79538e+06 
59 1 42.7507 45.1313 12.4221 6.54893 -1.44004e+06 -303337 -1.59337e+06 617560 41880.3 110146 
64 1 45.1181 44.5926 12.3182 3.65763 1.14204e+06 1.54913e+06 40126.9 1.44783e+06 1.59157e+06 -1.21621e+06 
38 1 47.6942 44.4248 12.0708 4.64313 -1.22374e+06 -126940 -1.75731e+06 -151866 40373.7 179549 
49 1 34.87 45.7791 12.9862 0 -825228 -76722.6 -168589 306142 266410 20092.8 
54 1 38.8472 46.7818 12.191 9.58621 704225 -700106 -1.00868e+06 230264 -442613 441737 
58 1 41.2558 47.0967 12.3869 8.59391 -299890 -770390 860533 -474444 376572 814807 
75 1 44.2955 47.0071 12.0036 5.91724 -10780.8 124394 -117284 760044 -61186.6 527256 
70 1 46.8171 46.6703 12.0801 4.19659 143530 1.30982e+06 -638626 990043 -553933 100236 
68 1 49.3814 46.3876 11.9816 5.37428 -1.50274e+06 -2.06054e+06 -393955 783403 605912 159889 
71 1 36.3211 48.6307 12.1354 10.9674 81288.5 227166 -2478.26 56146.9 123291 349571 
53 1 38.6466 49.1874 12.2749 6.17794 525272 6000.52 740233 305127 38941.5 -147311 
56 1 42.8847 48.7734 11.7849 7.86597 -929524 -738456 323216 563992 -166285 641599 
46 1 38.4107 49.9971 10.0293 15.8872 390384 -691721 -516108 734101 -5759.65 377223 
20 1 49.5556 36.8311 13.2904 6.98826 411228 -503940 -422752 1.3696e+06 -774057 -413779 
90 1 43.6436 36.3417 14.0121 0 143126 -273084 -40914.3 -321925 -89956.6 -79768 
94 1 45.2517 34.7678 15.0205 21.9323 26062.8 73442.6 733552 -212796 -290050 -300504 
98 1 47.0472 36.2854 14.2936 7.51419 679267 678902 1.35435e+06 58228.4 -646196 -879105 
81 1 49.0953 35.393 15.3083 9.82462 34463.1 -590883 -727041 -740098 359551 -480627 
84 1 41.6824 37.1189 15.5015 11.5251 248540 333542 -176612 49226.9 -250753 59990.8 
380 1 48.2435 49.9473 26.4977 6.5452 552085 220286 55023 -98546.3 -232373 23702.3 
113 1 43.9748 38.271 15.3601 7.98538 -280046 -1.1997e+06 248411 -219325 447107 -90671.6 
93 1 46.049 38.5289 14.0545 7.0783 495775 -51936 -677597 -267261 68794.8 -128096 
97 1 48.5038 38.3579 14.8246 6.87649 -66144.7 -200771 -625927 102229 -45205.6 325724 
105 1 38.1672 40.1423 15.3932 0 107454 -624883 112037 201111 -551513 -330080 
85 1 40.4301 39.3371 14.9387 10.766 269763 100490 -424784 -58339.2 142065 239307 
112 1 42.243 41.0735 15.027 6.71143 -813285 642383 -291969 167971 -67073 -836841 
89 1 44.0872 40.1658 13.5664 6.75645 323108 260781 187660 -662885 -429617 528660 
17 1 47.1951 40.7004 13.8706 7.57634 511049 18416.6 -393328 236364 -155823 293186 
376 1 37.9933 49.9707 26.5986 5.87434 107436 -84685.7 -517607 -33887.2 296576 -195905 
108 1 39.9092 41.5183 14.1815 8.65291 -436234 41999 -479598 720779 292890 -253051 
107 1 41.7088 43.3688 13.7621 9.31163 310414 1.13488e+06 -1.11006e+06 -65944.5 101380 -534095 
37 1 45.2316 42.1994 14.4952 8.1886 -514857 -431167 -1.18426e+06 -381943 25327.4 251318 
120 1 49.1765 42.2604 14.3851 5.85316 1.66188e+06 523903 -755764 -18836 -1.30004e+06 -98323.7 
121 1 33.9039 45.2978 15.1385 0 396549 395895 108466 -183406 -4811.06 26097 
123 1 35.9018 43.9784 14.2258 0 623991 -107417 341109 -265616 -484346 107951 
103 1 38.6078 45.4501 14.2578 8.75269 -635315 -840498 -1.23944e+06 398181 -599404 -52478.8 
55 1 41.0214 45.7307 14.3085 7.86662 -804524 -614048 -2.81048e+06 564722 60210.9 359263 
111 1 43.9243 44.3028 14.3932 6.15168 -487835 261551 -694832 194424 -246537 1.29196e+06 
34 1 46.9737 43.9381 14.2191 6.14512 1.64713e+06 1.18238e+06 805756 -959675 2.31331e+06 615116 
67 1 49.4404 44.8426 13.8997 9.52933 1.1976e+06 1.48196e+06 -1.37402e+06 215582 296119 -44036.5 
130 1 36.7811 47.0303 13.8292 8.75769 686144 -381880 1.33362e+06 110644 -541314 -153833 
138 1 43.1828 46.7985 14.1385 8.53946 173236 -842958 -371814 183567 147531 13320 
142 1 45.6817 46.115 14.1167 5.07802 513374 -1.55985e+06 -2.04028e+06 -623485 30458.6 -1.18737e+06 
140 1 46.065 47.7968 15.594 11.2902 -899729 -2.08147e+06 -731893 1.6358e+06 1.21337e+06 -1.98938e+06 
146 1 48.0224 47.0457 13.9926 5.86695 162429 745117 -996182 -53087.5 359363 -420109 
126 1 34.5252 48.089 13.7257 0 -290063 -56335.6 -130445 -276472 1.37321e+06 952972 
129 1 37.651 49.0587 14.6736 10.413 -1.49984e+06 51042.5 -691967 46618 352583 -538941 
134 1 39.772 47.8003 14.2673 7.53703 -482302 -1.55733e+06 -573592 32187.4 610003 -676045 
133 1 41.8974 48.8743 14.1986 6.94757 988158 -1.3614e+06 580829 88276.2 -57493.7 -83835.4 
137 1 44.6073 48.8872 13.729 9.60833 1.68909e+06 -1.02864e+06 351634 -180449 493383 -334670 
141 1 46.9378 49.4763 13.9317 9.56536 -395055 -559591 -97695.8 -795474 -337221 -208389 
69 1 49.591 49.083 14.0785 5.40865 184451 1.39109e+06 -1.22001e+06 -860449 -115327 -22129.4 
79 1 44.7163 33.8869 17.4123 14.5695 -176778 109219 420167 501375 -529009 4872.39 
78 1 46.7453 32.6181 17.5594 0 -34205.8 337372 -284438 482271 46246.6 -231493 
80 1 48.9909 33.6055 16.7462 0 -68784.9 -636124 -249421 172025 319957 220682 
87 1 43.1445 35.4145 16.2813 10.2389 -217422 -243941 -229675 141965 -75178.1 259156 
77 1 41.7315 34.805 18.0467 0 -138264 184757 -108948 -869300 216872 -92821.3 
167 1 44.7852 36.2856 17.8718 8.07804 877836 -251767 -460399 -837344 -485289 722711 
95 1 46.973 35.1113 16.7157 9.46308 1.24234e+06 930931 2.0368e+06 -744326 -867725 -253576 
101 1 37.1351 39.0735 17.5623 0 -90255 356044 571042 -182041 107782 -585347 
82 1 40.1771 36.8102 17.432 16.9394 482244 1.46094e+06 905794 -809871 -293242 41177.2 
163 1 42.5092 37.1195 18.0043 9.99788 -420705 -670950 278618 -109236 141340 729405 
164 1 44.4141 38.7633 17.9612 8.72709 1.18786e+06 853898 2.31045e+06 -323749 -222632 544471 
92 1 46.0768 37.4823 16.3218 7.9661 211335 -1.37912e+06 -314128 -807665 -224037 1.22604e+06 
168 1 47.0599 38.8026 18.1757 7.42413 479580 618877 -880573 452079 -64499.2 154226 
96 1 48.47 37.1418 16.8165 8.25248 563469 -71639.1 -367773 1.1445e+06 -791821 9454.97 
172 1 49.4953 39.0805 18.1071 9.19033 -691824 -716061 715629 -223465 584653 -464220 
104 1 36.2717 41.3468 16.6076 0 634653 1.43121e+06 335374 -548331 44997.1 152878 
177 1 38.2528 41.1606 18.1431 8.29196 391741 -544724 998917 -1.08651e+06 103621 -307212 
83 1 39.5527 39.2103 17.0989 6.83442 162125 448897 -1.38705e+06 -79202.6 -306577 300956 
181 1 40.829 41.0839 18.0677 7.67398 57371.9 -162401 1.30941e+06 -400934 -566504 180110 
109 1 42.2034 39.2215 16.7635 5.82426 1.54082e+06 757804 342556 349245 -218832 -201507 
116 1 44.4426 40.4975 15.9443 8.41809 792372 -556651 -548963 66662.9 -244000 -394768 
189 1 45.7749 41.016 17.9648 3.68292 -268880 698929 692164 -361131 -388413 116290 
117 1 46.7989 39.684 15.9608 5.91293 -520445 -2.39749e+06 -1.56104e+06 -1.04506e+06 -338861 255821 
2924 1 49.0004 40.4788 16.0009 5.91697 -1.63682e+06 -919307 -17491.3 -196569 -18955.8 -298406 
175 1 36.743 43.3188 18.2532 11.4504 674083 917041 356532 -230446 326114 278773 
102 1 38.3869 42.4136 15.8606 9.05547 126510 100831 729549 874489 540298 -596803 
106 1 40.943 42.7462 16.1058 7.77415 -421304 -797549 -235774 459286 52352.2 -737234 
110 1 43.4488 42.8228 16.2329 6.21887 -928049 -492311 -1.2956e+06 -464965 -434094 26771.3 
114 1 47.0931 42.0404 16.069 5.99212 -65289.2 -1.29721e+06 -222259 167943 -422373 -100214 
190 1 46.9949 43.3376 18.1568 0.780028 1.26959e+06 -1.21235e+06 279916 199410 -691470 -808074 
99 1 34.8482 43.599 16.6023 0 523428 989116 881234 -314862 -165463 156935 
199 1 35.3141 45.4744 18.2688 12.0818 487244 1.10584e+06 172227 -482273 348152 30493.9 
127 1 37.1789 44.4333 16.1631 6.38236 -236719 -273095 36188.2 -27181.9 -267757 -160102 
203 1 38.116 45.5487 18.215 5.47869 -21279.6 -24651.4 -342060 -92413.1 50946.6 69600.7 
131 1 39.6575 44.7341 16.2205 5.7951 -1.79153e+06 -180423 -2.36177e+06 418068 -403158 381388 
135 1 42.1107 44.8903 16.1373 5.63621 -532317 130896 -52631.7 -705478 -1.39505e+06 245502 
115 1 45.5498 44.0153 16.2483 4.53984 -1.34261e+06 -869638 -1.31087e+06 -306604 292727 -49753.5 
118 1 48.7549 43.9998 16.1414 4.68566 689377 -368139 156955 -840640 -678763 -760488 
219 1 48.3905 45.4409 18.2072 0.521207 927433 94822.9 -921229 -289715 -246205 57739.9 
122 1 33.6306 47.6427 15.7449 29.5754 -760378 330253 -759735 -530461 588566 646792 
124 1 35.7787 46.4601 16.1775 8.92055 -246628 -294371 136744 -69011.5 -405194 -418974 
200 1 36.7003 47.6505 18.0648 4.78645 851033 149541 1.51262e+06 -259025 496628 -725432 
128 1 38.1209 46.8627 16.1068 7.05558 -409303 -44351 579543 -274895 873311 -271283 
132 1 40.6238 46.9594 16.3201 6.77767 -35505.7 -418127 -1.73754e+06 -522622 -149493 -108208 
139 1 44.2352 46.0234 16.2337 4.20803 41725.8 289980 -1.38271e+06 432228 188465 129716 
143 1 47.1547 45.7889 16.1518 4.30754 -730129 -717712 930435 731425 -82124.9 1.09572e+06 
216 1 47.0085 47.7188 17.9841 1.82192 553213 1.04692e+06 1.63209e+06 -453286 427319 350937 
144 1 49.6348 46.3516 16.0646 0.99585 439740 119559 1.03443e+06 66996.9 -147161 -267593 
197 1 34.1575 47.8598 18.2126 0 504753 1.3122e+06 565366 -471112 265741 -215007 
304 1 48.1418 49.9747 22.3748 5.50705 -384399 -290399 -151084 -252842 154988 67402.2 
125 1 35.7635 48.8745 15.9216 7.2888 -1.43871e+06 -543972 1.46597e+06 -722720 1.8684e+06 -295073 
149 1 39.3589 49.1154 16.4272 6.78761 -544978 63794.4 -1.6801e+06 -394720 -103818 317187 
136 1 42.7677 48.0051 16.3036 6.35206 -748683 730558 198936 -477882 395280 1.22404e+06 
226 1 43.1411 49.858 18.3388 3.37363 -129610 227406 1.13205e+06 472395 371913 1.0054e+06 
151 1 44.6144 49.3922 16.1941 5.30789 -1.47508e+06 -1.48044e+06 -464786 1.13689e+06 472379 -668744 
145 1 48.2603 48.5269 16.0102 1.39713 183860 439763 -368500 -829519 509394 53221.3 
220 1 49.5067 47.6639 18.2067 0.449905 -111128 374125 -21594.7 -5966.86 120184 -26501.9 
91 1 43.3516 33.9138 19.5133 0 -158903 -294924 201707 243663 -400735 14094.2 
154 1 45.8329 33.5632 19.5323 0 212307 -22703.9 -592004 198970 87602.4 -70229.7 
156 1 48.1395 34.3365 18.9632 9.76296 764489 317344 74014.5 563579 134737 27591.9 
86 1 42.3608 36.0142 20.1626 13.7167 216750 -1.2668e+06 -475462 -291516 -209989 -45136.8 
153 1 44.8989 35.7344 20.1473 9.51579 379523 -224190 84456.8 -63617.4 -153257 145297 
171 1 46.9682 36.4254 18.952 8.33235 -122691 -598195 395003 416159 34456.6 -156594 
2980 1 49.5532 36.6464 18.9628 9.57134 -580766 487034 -134851 725478 171151 -311241 
158 1 38.6801 38.0529 19.2067 0 618900 642818 649256 -230514 213548 283254 
160 1 41.0485 38.8279 19.0069 6.53894 -387964 -620433 -255914 -126914 -244483 -136819 
166 1 43.1678 38.2039 20.2781 6.23236 407067 -723617 717995 20908.9 422990 558853 
170 1 45.6672 38.0559 20.1635 6.78322 472800 160887 938989 275054 1.01204e+06 -102183 
174 1 48.2565 38.132 20.3089 7.6994 522698 -16543.5 -598436 388750 48510.3 -117907 
159 1 39.4142 40.234 20.3257 9.82572 803268 1.3416e+06 1.35932e+06 281913 -202003 -281923 
185 1 43.2475 41.0873 18.1024 6.54737 -675484 -107625 586828 229179 -387805 216079 
161 1 41.9539 40.5216 20.3308 5.5699 -588362 -748897 -169613 -270182 -716851 -658434 
165 1 44.4315 40.4437 20.1657 5.00819 63943.9 652038 775958 189742 -32125.5 406261 
169 1 47.0088 40.3468 20.1531 6.32093 284483 238934 725567 214195 240166 -239819 
193 1 48.2343 41.2299 18.1515 3.45112 1.32752e+06 -801203 337167 330884 805010 -739322 
173 1 49.5353 40.4164 20.4169 6.28931 -296700 -335158 951826 19950.1 854091 -388110 
180 1 38.1898 42.5962 20.2855 9.53281 -155578 517371 -150292 -654072 89986.3 -295680 
178 1 39.3483 43.2264 18.115 4.80203 154603 -1.23692e+06 -198398 -839616 374083 396631 
184 1 40.6739 42.5784 20.2943 5.63628 -650355 146558 432655 372536 244867 243929 
182 1 41.9627 43.2279 18.2846 4.86292 -475398 -353053 -671055 -197913 -198679 -416677 
188 1 43.185 42.6453 20.328 5.3211 -240432 -324378 -312764 -489183 -303235 442062 
186 1 44.4847 43.2643 18.2697 3.86095 -819572 354592 -1.63115e+06 -672963 -217307 30550.8 
192 1 45.8959 42.5925 20.1855 5.57881 247287 -414025 -83919.5 -12820 -46589.9 251016 
194 1 49.6828 43.2339 18.3063 2.15728 163818 -243304 -1.09723e+06 81402.9 119957 168804 
196 1 48.4392 42.5438 20.282 5.6396 -639488 -744199 -551677 7183.08 100144 -91474 
176 1 36.7176 44.7676 20.331 9.965 327449 101062 47919.5 -189474 259083 164609 
179 1 39.2877 44.7268 20.3482 5.20786 -117962 -661523 7575.64 6316.85 -87386.7 374920 
207 1 40.581 45.3736 18.2909 4.65113 -172642 -121604 5885.92 -421239 -1.237e+06 747192 
211 1 43.1826 45.5214 18.2616 3.91358 -342976 397143 -1.05889e+06 -513141 336770 127883 
183 1 41.7969 44.8887 20.3789 5.20357 -569039 -729338 -724563 202716 -175835 -70898.2 
187 1 44.4647 44.7511 20.3566 6.50397 -550925 -663475 -491186 -67351.9 46063.9 -37809.7 
215 1 45.6552 45.569 18.2087 0.874118 303038 -778847 -637178 405877 -160471 -212722 
191 1 46.9402 44.7588 20.2642 6.03466 -12138.8 -213254 -114147 -194251 -112689 -252808 
195 1 49.5814 44.7755 20.2816 5.93439 545283 -408252 -455328 -142403 -283000 -161922 
202 1 35.254 46.8129 20.2702 11.8565 1.15584e+06 138932 791759 166881 443415 257166 
206 1 37.9545 46.8692 20.3369 5.52614 858029 247839 462874 16424.7 428335 -7458.18 
204 1 39.3224 47.6745 18.389 6.28829 -429445 -1.07398e+06 -347179 -372234 304091 315378 
210 1 40.5567 46.9304 20.506 6.09401 134328 -592567 -307014 387497 -111914 937937 
208 1 41.7377 47.6166 18.4224 3.88803 208761 320594 -1.06614e+06 -110268 -133505 96312.8 
214 1 43.2166 46.9054 20.3555 5.93314 54786.1 -626865 -50061.4 58308.5 -64046.2 34397.7 
212 1 44.457 47.6966 18.1739 2.78855 785293 -662549 103248 329765 -266379 -93944.7 
218 1 45.7097 46.9776 20.2817 5.93835 75702.6 -1.05659e+06 648178 -21069.7 -523889 118773 
222 1 48.3082 47.0385 20.2864 6.12602 -142518 -335478 52938.1 -195629 162279 -32082.3 
198 1 34.3141 49.1972 20.3044 15.6748 -532510 700244 398511 324628 -118772 -172857 
201 1 36.642 49.0514 20.3421 4.87681 92379 1.03741e+06 -126438 937243 802969 551553 
224 1 38.0658 49.8644 18.5423 4.34526 -1.77197e+06 -629773 -1.81868e+06 272127 -115416 299332 
225 1 40.5076 49.8131 18.4863 3.87418 -840455 -1.3632e+06 -529110 -77251.5 91654 -94217 
205 1 39.3414 49.138 20.5816 6.07204 1.25891e+06 199663 -953046 36780.4 -45252.5 427613 
209 1 42.0076 49.0885 20.5594 5.28886 340843 -191955 -18277.7 -327511 -352960 175852 
213 1 44.5252 49.0923 20.4135 5.24601 -597832 -443852 -125537 251517 206703 50469 
217 1 46.9821 49.0965 20.2975 5.24316 -722813 -174123 367099 -85714.9 -174690 238709 
379 1 45.6197 49.9528 26.5961 5.381 -119463 -1.04045e+06 -343548 -539213 -72342.8 75854.4 
221 1 49.5036 49.2035 20.2374 6.03908 -504529 -690718 77476.4 -374422 28743.7 -127231 
230 1 48.5779 34.3667 22.8672 19.9276 69741.9 -512024 -563379 139108 -158389 421227 
157 1 49.7376 35.0396 20.8102 8.84318 190990 610450 30891.1 167732 18305.7 749068 
239 1 43.5308 36.6425 22.176 11.6402 -788453 447722 337543 -647148 -215762 139408 
155 1 47.16 35.102 21.105 9.58373 -417983 -347658 -409552 -119538 -261137 -398431 
243 1 45.8398 36.7275 22.3141 8.35716 -1.30777e+06 -406338 2196.92 -79723 191197 -294868 
247 1 48.387 36.7655 22.2498 8.66652 -172641 -1.94941e+06 115695 -717500 -47733.3 -274170 
162 1 40.4788 37.3343 20.8594 17.2781 394134 222126 156932 -98057.7 393103 -95087.1 
234 1 39.4603 38.87 22.3656 0 -167921 7377.65 -512998 78643.3 -130743 -176344 
236 1 41.9223 38.7499 22.2215 8.4845 128222 1.2303e+06 133036 -84144.8 409862 -14731.8 
240 1 44.5867 38.9514 22.3538 5.65975 -388702 -460793 -134721 93915 72151 -261801 
244 1 47.0566 38.8645 22.4186 6.2957 -494713 -257236 857537 203951 724251 154562 
248 1 49.5646 38.8557 22.4177 6.08623 -297944 -1.04515e+06 -148850 -220768 -45266.4 -25745.2 
253 1 38.0111 41.0945 22.3223 0 655937 -349663 718492 -574809 92686.5 -70788.8 
257 1 40.6638 41.0713 22.5273 6.7674 480449 224323 41602.5 -98464.1 4017.78 -378575 
261 1 43.1797 40.9934 22.3737 5.75536 13313.1 -170606 -1.05007e+06 203758 -336031 -219347 
265 1 45.7942 41.1189 22.3523 5.70785 -17479.7 -426205 481151 -136520 77357.7 22836.4 
269 1 48.2961 41.1266 22.434 5.52103 -158829 150762 -64167 187218 383339 19680.6 
251 1 36.9566 43.3201 22.2653 0 371409 -164956 -334084 -1222.74 108356 110315 
254 1 39.5073 43.3889 22.3462 5.20038 -414286 -429146 -509234 -738193 159345 55248.2 
258 1 41.9244 43.3053 22.452 6.40083 -646677 -35088.9 5074.55 105990 -220684 100996 
262 1 44.4853 43.2009 22.3233 6.03432 -263028 -77571.9 -295521 92962.4 -136716 250478 
266 1 47.0097 43.3238 22.4093 5.66607 240215 -556349 -86830.8 -297925 -22593.3 -128243 
270 1 49.6511 43.2793 22.3809 5.75913 -97009.5 -578905 -354108 79783 -30069.5 -87403.5 
275 1 35.6629 45.5466 22.4328 0 -482775 -529272 -717879 -769456 -163403 -76550.3 
279 1 38.0967 45.5476 22.5248 5.13249 -451662 -838690 -736585 -130858 202372 3882.89 
283 1 40.6683 45.5576 22.4829 5.64896 -261449 -1.00014e+06 -688016 -184336 73791.6 325291 
287 1 43.2103 45.4596 22.3859 5.84228 -253574 -313915 -504668 21011.8 17074.4 -88933.6 
291 1 45.752 45.5548 22.3584 5.82683 -372053 145573 41432.8 -77509.4 -39921.2 -67862.6 
295 1 48.2173 45.4932 22.3119 5.99921 -390795 -8016.21 -28212.1 -293437 14660.7 102369 
273 1 34.2515 47.8112 22.4588 0 -2201.5 592707 50741.6 -367327 -324723 22222.1 
276 1 36.7722 47.649 22.4451 5.74186 -70210.9 -720217 323788 30832.6 644233 809209 
280 1 39.3021 47.7049 22.5744 6.12106 -188770 -583620 -127121 -312412 340296 345833 
284 1 41.9022 47.6232 22.5138 5.92193 -584733 276781 -51160.4 -69654.6 -394835 760335 
288 1 44.3666 47.739 22.5426 5.44475 -519482 -215123 -343670 -424077 -135972 468826 
296 1 49.3735 47.7586 22.3475 4.9453 269057 202052 -146457 -187022 -227545 -143317 
378 1 43.0992 49.9886 26.6603 6.19174 -101195 -151012 -696344 -106627 -51725.6 112552 
302 1 43.1336 49.998 22.5295 5.85084 358778 170120 -297019 97663.9 -469215 -85990.1 
88 1 42.3632 38.4821 13.4487 11.4873 332322 118385 -102381 -438873 -257893 45575.8 
100 1 38.1708 43.2478 13.4777 11.1237 1.58386e+06 709100 1.12223e+06 496947 -956270 -761886 
292 1 46.8905 47.7518 22.4293 5.57755 -351858 -683755 155219 22302.9 68555.5 -55275.4 
229 1 44.6494 35.9592 24.4056 0 448755 144817 675071 -228966 252911 -59541.5 
231 1 47.1969 35.7719 24.3616 8.48212 569293 632870 720772 64377.5 26035.5 -368073 
233 1 49.7476 35.8744 24.507 6.99727 301240 82946.2 862971 -275307 -133325 68915.5 
238 1 40.6201 38.1571 24.3188 16.5148 695969 174541 557386 219985 -92700.9 359526 
242 1 43.2332 38.0606 24.3377 8.09289 338826 324102 348243 -208374 -166115 70959.8 
246 1 45.9199 38.0977 24.4807 6.11145 -310623 -213276 -547944 -274340 -56853.1 -160575 
250 1 48.452 37.9955 24.4932 5.09819 125950 564678 -137158 -7245 125739 -102727 
235 1 39.2041 40.2211 24.4624 10.7951 674147 561630 -147143 141341 433653 -480261 
237 1 42.014 40.2718 24.5376 6.2061 19415.1 137116 -11315.5 -110518 276390 40258 
241 1 44.4618 40.166 24.4268 5.19217 -56034.6 -69353.4 -692338 63944.8 -30851.5 161633 
245 1 47.0694 40.3174 24.5578 6.12659 612076 -221652 -254337 -206899 462799 326531 
249 1 49.6875 40.3102 24.4254 6.0546 838702 -153078 603732 197851 -496790 289027 
256 1 37.9503 42.4835 24.4382 10.9263 679105 342578 -379873 -24158.4 438510 404611 
260 1 40.5422 42.439 24.5589 5.05617 783925 818204 -1.30409e+06 226938 302750 -534762 
264 1 43.2144 42.4309 24.3316 6.43109 466443 -12204.7 -334469 -241389 -100474 -130467 
268 1 45.7363 42.4442 24.4766 5.34473 184925 94677.2 -6471.14 147196 227595 335702 
272 1 48.3706 42.4498 24.5468 5.90197 -14286.2 -374237 188586 110889 454505 210423 
252 1 36.639 44.6664 24.4924 10.5423 417801 395635 -353647 -191441 352442 663998 
255 1 39.1944 44.6911 24.5592 4.76339 684562 225660 -167550 492001 330.819 425190 
259 1 41.8838 44.7914 24.54 6.03351 833287 508694 11041 147784 -103577 126516 
263 1 44.4252 44.6989 24.4877 5.67171 533005 519075 -60800.5 97748.6 -132249 204887 
267 1 47.0637 44.6205 24.4326 5.62443 304385 574796 609271 -53995.7 464491 105519 
271 1 49.4884 44.7556 24.442 5.13356 -363717 -16459.9 364311 168128 83019.3 -174946 
278 1 35.4191 47.0014 24.4252 9.62956 113901 135106 -1.05244e+06 -160295 -160546 -374499 
282 1 38.0477 46.8111 24.5719 5.40223 347445 -289922 -1.04717e+06 378036 -13718.5 -46406.1 
286 1 40.6331 46.9271 24.6494 6.29197 98111.7 93094.9 -396724 133261 -91444.6 -42933 
290 1 43.2014 46.9893 24.5144 6.20811 -471770 -10024.1 -487129 -367780 1.08062e+06 649266 
294 1 45.6809 46.9585 24.5711 5.48549 -75647.7 675112 -23317.6 104423 -112075 153344 
298 1 48.226 46.9364 24.5216 5.81627 167972 610545 687179 115319 -84450.5 7207.94 
274 1 34.2921 49.2356 24.4739 0 -205828 -459177 -212185 -44914.9 95294.5 13092 
277 1 36.7599 49.1011 24.6096 5.7105 -370260 -109683 136122 -32001.5 61720.1 15358.6 
281 1 39.252 49.1699 24.6899 6.16369 -1.05058e+06 159197 -1.19237e+06 -39572.1 507028 94857.4 
285 1 41.7053 49.2035 24.7575 6.02345 -518180 -25391.5 -809285 229243 -590502 744091 
289 1 44.3594 49.1255 24.6394 5.17198 250746 -589175 -774669 -226844 -230104 -155242 
293 1 46.999 49.225 24.5351 5.7214 218132 3334.3 -498708 121586 -370013 -90596.7 
297 1 49.6245 49.2322 24.4069 5.63735 -143653 68843.9 94799.9 190956 190908 -20549.7 
306 1 47.4168 34.5408 26.5578 0 -1.44249e+06 -143332 553691 247652 120242 -314013 
303 1 45.6852 49.8606 22.5155 6.24724 -476361 -804693 -256942 347851 -263718 -115753 
315 1 43.3446 36.663 26.4399 0 715982 -44189.7 1.0019e+06 -23243.9 379782 -35891.5 
319 1 46.035 36.5536 26.5488 6.90933 731160 235450 310325 185692 -150243 102407 
323 1 48.5639 36.7113 26.7089 6.05607 -457471 -668670 132593 60204.4 -152953 -99981.2 
310 1 39.4837 38.7725 26.5926 0 280182 348907 725076 -434534 -69550.3 -128679 
312 1 42.0238 38.7375 26.6152 7.32669 132356 -992056 377871 28373.3 332844 171495 
316 1 44.503 38.8598 26.436 6.40957 519114 436226 78331 24629.5 -320635 -68852 
320 1 47.1465 38.818 26.4758 6.45787 205141 255100 -632206 26772.2 -181061 135630 
324 1 49.6684 38.9792 26.5815 5.65145 -127488 -249013 144296 2946.1 121150 8455.06 
329 1 38.2505 41.1711 26.4463 0 -62945.9 -166242 -507287 -210930 176213 204526 
333 1 40.8165 40.8396 26.5522 5.71674 270667 765741 153608 -590395 149054 97775.1 
337 1 43.3105 41.1177 26.6203 5.02378 265353 -654145 -419131 -491164 -97263.8 -303313 
341 1 45.8897 41.1288 26.5418 5.55375 236138 46612.7 -395585 -3895.58 131251 -39686.5 
345 1 48.4035 41.2023 26.713 5.78378 316097 -537962 336640 453294 -325068 713921 
327 1 36.9812 43.3542 26.5091 0 -82211.3 -215794 -103028 -132287 54524.5 196067 
330 1 39.4925 43.231 26.5129 5.13969 -789234 519004 -913190 -643123 735413 129848 
334 1 41.9093 43.1711 26.5159 6.91225 -378869 212990 298898 174485 -245721 122941 
338 1 44.5288 43.3216 26.5203 5.25479 487376 -259713 -287591 142440 107591 222607 
342 1 47.1681 43.2689 26.635 5.82163 512702 -374747 551923 267959 174041 173948 
346 1 49.8054 43.3345 26.7008 5.26994 -441921 430121 -82909.4 239108 246467 182510 
351 1 35.6782 45.5917 26.6106 0 -58884.2 22845.3 218259 -621319 14009.1 -372541 
355 1 38.1379 45.5067 26.6345 5.51528 11297.2 -798675 -36737.1 154102 449319 152153 
359 1 40.7117 45.4555 26.7043 6.50487 17046.3 -15398.3 -210365 -167187 140632 357138 
363 1 43.284 45.4698 26.6215 5.90672 -8854.46 -211873 3626 640505 1032.72 -134805 
367 1 45.8075 45.5277 26.6451 5.78895 283023 164675 301620 -92683.6 -182863 174684 
371 1 48.4126 45.5076 26.6921 5.20028 74681.8 572457 614196 37572.6 567741 421562 
349 1 34.2867 47.8417 26.5059 0 224361 -100405 63175.8 -461386 175453 -415307 
352 1 36.7783 47.6955 26.6452 6.10783 -191500 -810976 -579814 -67811.9 -100371 -100667 
356 1 39.3209 47.6896 26.7001 6.35641 874964 -25307.4 -106792 -376557 131751 123706 
360 1 42.0542 47.5587 26.5959 5.60028 1.10106e+06 1.16966e+06 -1.40403e+06 -725080 -150543 669018 
364 1 44.596 47.771 26.7213 5.35323 -122210 -465812 306765 -199423 737020 540761 
368 1 47.0386 47.7437 26.7206 6.06343 -91583.1 295861 187570 -237135 -98145.8 33447.6 
372 1 49.6233 47.7905 26.6428 6.0695 120446 143414 555499 268637 -95632.4 70287.6 
299 1 35.4486 49.9734 22.4089 7.39527 201960 153974 -233110 -312953 306167 -145444 
228 1 48.171 49.975 18.1267 0.256422 24695.4 257949 217200 -170742 54255.8 11319.7 
377 1 40.5572 49.8703 26.7971 6.32202 764997 1.45505e+06 -1.49447e+06 -1.10711e+06 206861 88316.2 
308 1 49.6554 34.3848 26.3081 24.572 -1.75119e+06 252063 993734 568350 220048 848470 
227 1 45.654 49.9518 18.3068 2.86744 -159969 37924.5 -136219 -427898 -180856 -8530.97 
223 1 35.6353 49.9397 18.1872 3.7256 -1.03125e+06 -675206 -445474 139597 -623139 183877 
301 1 40.5102 49.8231 22.7471 6.48321 263746 -173155 -954814 -367424 -237116 152856 
375 1 35.3932 49.9768 26.7043 7.70735 220823 -743859 -923672 -250956 118639 397707 
305 1 44.6792 36.0511 28.6929 0 -807614 -2.38921e+06 142859 -114801 46357.7 -310945 
307 1 47.1638 35.8391 28.6922 10.2808 760138 326941 5476.76 488044 45570.6 -175025 
309 1 49.8339 35.8031 28.6935 7.48042 957838 555297 1.78685e+06 184310 18248.3 451425 
314 1 40.6677 38.2081 28.7554 0 16573.3 -160329 424617 -219257 -159061 44483.6 
318 1 43.1392 37.8655 28.7526 8.54371 2.00591e+06 -1.40632e+06 359148 1.27849e+06 -493819 -13087.6 
322 1 45.784 38.1356 28.5623 5.94637 1.94068e+06 -1.70881e+06 1.58264e+06 157684 -448039 -1.10782e+06 
326 1 48.2873 38.1469 28.7217 5.45425 288436 361258 -340283 304298 148947 5586.74 
311 1 39.219 40.2487 28.5908 10.5249 548727 1.00779e+06 892887 158993 12211.8 -42763.4 