ITEM: TIMESTEP
20000
ITEM: NUMBER OF ATOMS
5538
ITEM: BOX BOUNDS pp pp pp
0.102528 99.8975
0.375086 99.6249
-1.32889 101.329
ITEM: ATOMS id type x y z c_csym c_2[1] c_2[2] c_2[3] c_2[4] c_2[5] c_2[6] 
4 1 49.3921 37.0833 7.53891 0 -216246 390376 1.12786e+06 304672 -1.03775e+06 -43923.8 
47 1 38.1807 44.0607 7.81401 0 386250 767000 678746 47888.3 424983 348822 
60 1 43.8541 47.8586 8.49521 0 -200967 -309186 -233365 -79512.7 166165 -100327 
3 1 46.2969 36.902 10.9171 18.5046 -342268 -88234.1 243747 594472 -309766 212772 
5 1 48.4521 36.1386 9.99243 0 492356 185104 1.2595e+06 521315 -376257 -362784 
15 1 45.3181 38.9349 10.1768 10.5196 246173 -1.20142e+06 -481559 137821 -1.81961e+06 -1.17232e+06 
2 1 47.5635 38.2329 9.12441 16.2726 1.18099e+06 1.00418e+06 442251 -28146.2 -680087 175218 
7 1 39.9605 41.0545 9.27262 0 1.35169e+06 1.07013e+06 870773 -161451 -219476 -72349.1 
6 1 42.1376 39.6719 9.16431 0 567646 436310 377506 -72140.6 -276822 -184013 
10 1 44.3666 40.1608 8.39883 0 -105538 17521.7 -190155 361238 -257278 256311 
33 1 44.1989 41.1953 10.7186 4.81372 620866 -709338 235827 -495079 1.66459e+06 -401743 
1 1 46.7055 40.6897 9.01455 15.75 909293 1.16499e+06 -29866.7 -69474.3 170531 79375.7 
2854 1 49.2287 41.372 9.44029 15.1507 1.04444e+06 -427230 -221286 884044 211848 173348 
16 1 47.9264 39.8317 10.9564 7.66931 -386448 -771514 -809496 -120139 -155237 201536 
25 1 37.7013 42.0328 9.02654 0 478495 165714 82445.2 -102704 81199.3 -117025 
32 1 40.1896 43.5957 9.23793 13.6002 -160018 707222 -507168 -213566 657495 -77325.7 
9 1 42.3634 42.0857 9.04991 16.7201 1.60388e+06 640187 725124 -9532.24 -44457.4 -128476 
11 1 44.9044 42.5771 8.86957 22.7369 878487 828399 -187030 291044 717441 418554 
14 1 47.1718 42.8476 10.13 9.93213 128700 296051 -290853 -22726.6 52994.6 63140.6 
24 1 36.5698 44.0153 9.83543 0 -701307 1.21121e+06 -420018 -332312 -460944 568094 
28 1 38.5963 43.4667 10.7965 7.36267 -2.26482e+06 -212596 1.2845e+06 -413446 -619067 -12275.3 
23 1 38.9984 45.7085 9.80241 8.58815 -328851 545931 427890 77959.3 -67501.8 353799 
31 1 41.3147 45.4035 10.5119 10.7542 -189900 -259201 140419 107653 -306599 233918 
35 1 43.6517 43.7001 10.584 6.87689 -604566 -1.75558e+06 -2.12856e+06 667970 -478572 -97245.8 
39 1 45.8384 44.9421 9.71819 10.6767 1.12741e+06 1.25844e+06 872872 1.21828e+06 -353876 -183451 
2853 1 49.2196 43.8247 9.52317 14.1952 1.66491e+06 1.39838e+06 -1.29402e+06 -662078 255797 -278729 
48 1 35.5467 46.3291 10.6234 0 304658 1.45844e+06 -32318.6 -520474 -147735 679122 
50 1 36.9625 46.1238 8.66734 0 -578240 -204215 -519656 -136335 -106596 -88213.8 
45 1 37.6011 47.7966 10.2783 11.3138 593549 779873 -665725 244576 -178167 -189173 
62 1 41.9936 47.6862 9.9381 10.0956 -1.38734e+06 -217795 -25527 678081 343930 -128172 
63 1 43.7024 46.041 10.1331 10.0405 -528759 -1.04772e+06 132005 754214 53279.6 356676 
66 1 45.797 47.4671 9.99939 13.2621 1.67654e+06 989424 -1.13796e+06 -1.00949e+06 141723 246234 
43 1 48.0523 46.0916 10.0178 12.6443 2.13649e+06 1.92217e+06 -988234 -689438 -25296.8 -517262 
76 1 48.4045 48.3402 12.2679 8.63781 -735770 -1.66399e+06 -1.26955e+06 830729 -374831 -118577 
52 1 40.0588 48.6395 10.86 8.00602 -745567 -785817 -773976 1.16276e+06 -196166 -680874 
65 1 46.0484 49.0271 11.9445 8.71958 676146 1.0756e+06 540293 205099 -80640.3 -264144 
61 1 44.4183 49.5725 9.99826 15.3031 1.36571e+06 -283030 401425 -378123 -119652 -682649 
2876 1 49.5253 48.1482 10.0864 0 -341280 1.3796e+06 594452 112912 295814 -105061 
19 1 45.5659 35.559 12.9627 0 685880 337951 838180 -177804 -173180 -121124 
22 1 48.014 35.6136 12.3349 17.1877 64764.1 -498206 -122205 238326 -342452 366144 
29 1 40.4615 39.416 11.0622 0 463503 -371533 -75109.9 116283 -200529 -514407 
18 1 44.588 37.7864 12.3976 10.6254 1.19525e+06 -943076 1.35633e+06 -682891 -1.88901e+06 -1.18348e+06 
21 1 47.6836 37.927 12.5613 6.4701 -1.1188e+06 -768213 -1.38253e+06 -875699 778484 93496.9 
2837 1 49.6203 37.9845 11.2579 5.95812 -144332 1.3476e+06 1.0646e+06 -593211 -401343 344653 
8 1 43.0212 39.3164 11.3521 9.87002 551566 -509118 613409 26427.2 -217590 -55102.5 
12 1 41.6465 40.8007 12.6153 7.84801 326324 594567 -1.10766e+06 -215279 347076 -1.67809e+06 
13 1 45.9522 39.8033 12.1069 5.2988 157133 -1.19514e+06 -3.0901e+06 -2.13444e+06 -106125 -1.13981e+06 
41 1 49.0433 39.7352 13.1205 7.2999 -631920 281426 -323685 -1.27339e+06 -948970 736702 
26 1 39.5104 41.5292 11.7846 13.0969 -128238 206734 1.21359e+06 116793 -944003 820380 
30 1 41.3879 43.0675 11.2667 6.14934 -156020 853393 -196844 988779 223544 -138005 
36 1 43.4932 42.4483 12.6003 5.99732 1.08227e+06 3.15794e+06 -2.21297e+06 1.31456e+06 200748 -1.0327e+06 
40 1 46.1665 42.1743 12.2384 8.04511 1.61611e+06 -703457 863062 176854 -306318 596973 
44 1 48.6454 41.9334 11.7813 10.2418 904078 456913 -234817 -1.0405e+06 -1.21119e+06 13654.7 
49 1 34.7193 45.7613 12.925 0 419632 409235 735074 -153984 -125239 -37180.4 
51 1 37.0461 45.0774 12.0432 7.91415 374150 344709 207609 -5606.52 -251881 -310473 
27 1 39.9625 44.5367 12.4189 7.54068 -1.74484e+06 -562044 -1.37959e+06 -765932 208766 -666638 
59 1 42.8145 45.077 12.4164 8.15704 103609 1.27947e+06 -1.01053e+06 415026 -1.06596e+06 34828.9 
64 1 45.2305 44.4953 12.2064 3.36632 1.32093e+06 1.60743e+06 423932 1.0689e+06 -382344 -1.01317e+06 
38 1 47.7164 44.2778 11.9207 4.78201 -436487 -115433 386038 573690 694491 -782969 
54 1 38.8725 46.7073 11.9802 8.0155 311617 157470 72514.7 -230049 -785610 110970 
58 1 41.2213 47.1039 12.3473 9.78742 -456496 -104447 859045 -453602 894726 67285.7 
75 1 44.4308 47.0388 12.2061 5.56071 -606391 -342207 -100950 829438 382659 -312742 
70 1 46.7763 46.4806 12.0106 5.21779 -214153 -402348 -1.0078e+06 459550 256159 -163302 
68 1 49.4108 46.3218 11.981 2.87235 -584273 -1.43704e+06 847952 1.19662e+06 -228902 -941090 
71 1 35.9337 48.4177 11.862 12.2228 371299 1.12444e+06 423456 333277 403784 151431 
53 1 38.2761 49.116 12.4654 8.08208 298512 814766 1.49707e+06 -374825 638647 -999930 
56 1 42.9094 48.6767 11.8885 6.91436 -255055 -1.22017e+06 845007 309852 526528 -79480.2 
2851 1 49.9114 39.1823 8.99401 14.8549 1.20815e+06 892966 875521 59097.1 541229 -404065 
94 1 45.3647 35.1636 15.4725 10.7506 -1.47626e+06 -677870 -348982 -288594 -27655 316587 
90 1 43.5362 36.3307 14.3322 0 236202 -565195 908046 -177426 -838829 -888431 
98 1 47.2881 36.3348 14.586 7.39996 -871023 313471 -610671 -552269 788353 142613 
81 1 49.2106 35.3331 15.6377 9.95812 -846943 59120.9 -288415 120627 575569 -793509 
20 1 49.7155 36.7737 13.6303 7.8871 -2.04564e+06 -207711 244569 503753 -942436 -69792.1 
85 1 40.5274 39.2433 15.1168 11.3432 -1.14931e+06 59116.2 -953588 264856 594010 -354555 
88 1 42.1554 38.3844 13.7573 11.9821 1.89768e+06 -100300 1.03509e+06 -402903 -226343 -951576 
113 1 44.1208 38.1291 15.581 9.2049 -120622 -1.69492e+06 928477 -236145 216432 -719850 
93 1 45.985 38.5096 14.1113 7.12658 -571539 -510346 -1.08065e+06 -497646 85589.5 -701696 
97 1 48.4739 38.4895 14.9008 7.29701 413567 -579986 -618501 -304339 216575 -182199 
105 1 38.2394 39.9255 15.5885 0 -41392.1 759952 -334432 376495 -852127 243111 
108 1 39.8162 41.4733 14.3138 9.43956 -351407 435311 -128680 -9435.16 -219998 -446160 
112 1 42.1936 41.0506 14.9501 8.34727 -1.8017e+06 -85931.7 -780804 657515 -38755.3 -1.35067e+06 
89 1 43.9562 39.999 13.7194 7.14179 431162 814457 -190338 -549061 922309 -1.68701e+06 
17 1 46.994 40.7989 13.9702 8.09065 -1.51508e+06 -1.50095e+06 -1.50741e+06 -570655 -726328 -157998 
380 1 48.3003 49.7471 26.6813 5.7263 1.35714e+06 -418081 -210070 127224 -708391 299441 
107 1 41.6044 43.1403 13.6748 9.08099 -632321 -524792 63551.7 687545 87500.9 -797363 
37 1 45.0705 42.0435 14.5982 7.48758 -496551 -834788 395672 360916 384979 -17251.5 
120 1 48.8367 42.0009 14.3622 7.60625 -925371 1.58728e+06 743403 -653319 -74528.7 103743 
121 1 33.8883 45.2626 15.172 0 447388 399527 391719 -159606 -213546 150473 
123 1 35.7864 43.8279 14.0636 0 1.32455e+06 523164 1.0213e+06 -332839 -702599 -201756 
103 1 38.455 45.2909 14.2298 9.75165 -650686 -2.29382e+06 -1.75179e+06 -261699 -43704.8 -1.02314e+06 
55 1 40.9714 45.5184 14.33 8.83046 290217 -220889 -205835 -452364 -923909 -200923 
111 1 43.7919 44.1631 14.3891 5.87644 1.04255e+06 -952992 979227 315975 -2.32631e+06 1.63212e+06 
34 1 46.9498 43.6533 14.1625 6.51804 1.45991e+06 334873 1.30982e+06 -543174 1.48812e+06 -276656 
67 1 49.4228 44.6645 14.0439 8.28577 968621 1.26532e+06 688602 645619 508906 -249029 
126 1 34.5378 48.0304 13.9374 0 82547.9 -200578 140552 -176258 -163635 225558 
375 1 35.3418 49.9974 26.6386 8.11771 670956 820.991 -1.85661e+06 -428262 -115848 -83234 
134 1 39.6826 47.613 14.1354 8.22179 -217881 447445 959289 152622 748037 371588 
138 1 43.0849 46.676 14.2826 6.66422 718810 -258587 -1.03089e+06 -353736 412440 -508112 
142 1 45.7083 45.8418 14.2937 7.07598 1.33697e+06 838919 113248 -292629 -353198 -1.02749e+06 
140 1 45.8179 47.6809 15.8743 10.131 -534305 -2.42689e+06 37816.6 1.23e+06 969327 -490412 
146 1 48.112 46.7614 14.1805 6.2294 1.17424e+06 -148957 -434309 206206 -98807.9 190035 
378 1 43.1416 49.8336 26.6385 6.33181 1.02717e+06 -1.07139e+06 -1.02593e+06 -314100 19992.6 261640 
129 1 37.5857 48.7847 14.8161 8.88795 -2.14708e+06 -1.37582e+06 -1.12491e+06 558041 -158754 -496511 
133 1 41.9426 48.8679 14.0905 8.58539 890552 -114848 -735673 370332 103714 341762 
137 1 44.5509 48.7515 13.9442 6.14056 296924 -1.22604e+06 1.07043e+06 -278553 1.12136e+06 -486595 
141 1 46.8946 48.978 14.2626 7.77347 -1.42225e+06 173155 -619725 -99558 -261913 510906 
69 1 49.5167 48.9784 14.2085 4.65635 -612450 711132 -944710 -514953 -187511 -132647 
78 1 46.9085 32.741 16.5757 0 -1.26466e+06 -429277 120531 -412730 -560621 26520.9 
79 1 44.6014 33.3785 16.8913 0 -808630 -1.01442e+06 -390266 724943 174061 -128627 
80 1 48.9753 33.3707 17.2841 0 -1.76704e+06 209058 -739900 -662103 -292706 -432521 
82 1 40.1326 36.7714 17.8388 0 -584990 -1.3181e+06 157005 113072 -566320 -79119.3 
87 1 43.262 35.2464 16.6716 11.8094 87341.3 -787745 849625 698595 45562.9 100870 
167 1 44.9704 36.2022 18.3986 8.41458 -122191 104595 743848 -233059 212201 -99199 
95 1 47.2093 35.0984 16.8337 8.6067 -1.43939e+06 -483358 -16864.4 -202718 -161892 -85689.3 
101 1 36.9578 39.2031 17.6698 0 495286 752581 597802 24350.6 106419 -430892 
83 1 39.5215 39.1218 17.3328 6.99041 1.12109e+06 296557 -2.10274e+06 294620 -1.30037e+06 732061 
84 1 41.6841 37.138 15.9514 10.0603 482149 81954.9 -6353.09 -198655 -466126 -224420 
109 1 42.2145 39.2873 16.9918 7.79309 2.08652e+06 534631 1.0113e+06 -645542 -662827 -1.02532e+06 
164 1 44.6008 38.6721 18.1721 8.81277 1.10603e+06 580024 1.60854e+06 -148370 -68205.6 113521 
92 1 46.1086 37.3719 16.4232 6.78237 -661586 -678645 784305 24368.4 -332612 -473269 
96 1 48.6084 37.1373 17.0105 8.11811 -757469 -1.36432e+06 -327485 723565 -313880 -1.18007e+06 
172 1 49.5207 38.9524 18.3265 7.92742 -633591 -1.3846e+06 624494 -722753 714612 -1.65758e+06 
104 1 36.2183 41.4323 16.5267 0 594893 902206 234789 -462477 92341.1 102107 
177 1 38.2246 41.391 18.1408 6.31315 -764647 -1.67582e+06 -281532 -468747 100247 -487809 
181 1 40.8166 41.1103 18.2015 8.98707 497161 -192137 532327 -471195 229028 -554898 
116 1 44.3283 40.3941 16.1069 8.9011 37691.5 -1.69401e+06 -1.0493e+06 -396981 316253 -48290.3 
189 1 45.7136 40.9713 18.1314 3.68586 -1.37436e+06 481418 955714 -374115 -394733 689332 
117 1 46.6937 39.6309 16.0664 5.65859 -388939 -2.41103e+06 -1.0295e+06 -1.15708e+06 -537787 349020 
2924 1 48.9528 40.383 16.249 6.99073 -2.02779e+06 -2.22261e+06 156208 -1.44592e+06 -503149 -1.39759e+06 
99 1 35.0613 43.6129 16.4769 0 -1.00719e+06 302578 326463 -564146 219123 351903 
175 1 36.828 43.2674 18.2421 9.74915 2.13443e+06 -1.60321e+06 232233 698091 54859.4 -309903 
102 1 38.3396 42.5557 15.9484 9.16502 403849 -276705 2.54605e+06 -157189 1.2633e+06 614888 
106 1 40.872 42.6169 16.1595 7.06325 -583713 -1.33336e+06 772050 454525 -630683 -1.13773e+06 
178 1 39.4836 43.3489 18.2274 4.93648 2.56e+06 -2.95646e+06 1.39752e+06 -357203 853502 1.48146e+06 
110 1 43.4104 42.6749 16.2377 6.05031 -1.31987e+06 -1.6424e+06 -1.29643e+06 459844 457045 104764 
114 1 47.0075 41.9386 16.2234 6.30362 -509541 -2.01699e+06 -977970 -522021 561768 -332792 
127 1 37.0639 44.5694 15.9471 5.38536 -1.71635e+06 630146 346178 -666662 371902 157519 
203 1 38.0482 45.4288 18.1609 5.95754 340163 15987.7 365762 -167760 664652 100212 
131 1 39.5792 44.5709 16.1773 4.26402 -1.48277e+06 -1.14872e+06 -1.44e+06 -553696 -493788 445683 
135 1 42.0917 44.7441 16.4026 5.9111 23004.6 -1.7686e+06 678229 -578510 -1.76925e+06 1.03407e+06 
115 1 45.5188 43.9485 16.2563 4.57012 -150083 482475 534620 -225534 -389285 -750355 
118 1 48.558 43.7071 16.2776 3.80304 48289.1 -369433 434881 -659072 55868 -120820 
122 1 33.4703 47.4989 16.048 0 -140633 559073 -87848.4 -157562 -88398.1 161534 
124 1 35.7433 46.6855 15.8975 10.1306 859056 -9338.23 666192 234291 -305785 -3899.35 
200 1 36.8696 47.7997 18.0534 4.27569 193376 253173 1.23262e+06 34643.3 197992 -218910 
128 1 38.2646 46.9444 16.0936 6.73175 275310 142852 -1.39627e+06 -498868 -31164.1 -36478.8 
132 1 40.8235 46.8552 16.3494 7.8967 -349138 -111165 -172377 -655832 178957 -359265 
139 1 44.0536 45.9987 16.3346 2.86337 -507708 281824 -872310 -457773 437379 468139 
212 1 44.5561 47.705 18.1756 4.38349 170781 -441942 920571 233428 -756995 -620090 
143 1 47.1266 45.8088 16.2812 2.83699 -2.16262e+06 -686702 -1.35747e+06 319018 -709583 511813 
216 1 46.9563 47.6574 18.1546 1.42452 -160085 283621 604480 -359522 276396 177266 
144 1 49.433 46.1186 16.0935 1.23791 -831699 295783 -195540 -256101 132414 183174 
220 1 49.6855 47.654 18.2426 0.569595 -409996 -133524 -811070 -306303 234056 124020 
299 1 35.5989 49.934 22.5 6.46887 251522 -26675.6 599486 -284091 -205375 42243.4 
125 1 35.6077 49.0393 16.0692 6.15983 -1.0872e+06 567453 -536734 -522958 650954 -14800 
224 1 38.0677 49.8755 18.2557 3.6156 -1.16998e+06 -1.10249e+06 -1.38716e+06 496660 164580 90975.9 
149 1 39.392 49.0559 16.4689 7.3949 -1.35755e+06 655050 -1.17924e+06 -1.21991e+06 -310799 728287 
136 1 42.7473 48.0586 16.2126 5.81699 -850384 704943 -325667 -597880 731377 742318 
226 1 43.0467 49.865 18.1951 3.74866 -608947 -5940.52 294963 -136001 945630 1.07874e+06 
151 1 44.6655 49.5092 16.3719 5.90302 -1.59378e+06 -2.4759e+06 -1.50988e+06 1.32416e+06 394326 -57625.5 
145 1 48.2539 48.3758 16.1387 0.946777 191047 500652 -796360 -230362 84159.7 454049 
228 1 48.3553 49.8247 18.2798 0.435294 -75758.3 -450968 -361792 -263973 301657 213575 
77 1 41.2223 34.7797 18.1729 0 53210.5 332750 742717 1.25133e+06 -158209 354300 
91 1 43.4563 34.1118 18.8723 0 969336 -428454 -1.1332e+06 -346941 -304092 -371360 
154 1 46.1948 33.887 18.83 10.1697 1.72346e+06 751168 1.0752e+06 -132853 -331343 325540 
156 1 48.3483 33.3024 19.5427 0 1.75873e+06 299517 -696206 918070 -1.00218e+06 -278411 
163 1 42.6 37.1434 18.2035 8.36447 -163282 800683 -1.09665e+06 793653 -384911 -550122 
86 1 42.2739 35.7718 20.3518 15.5355 280406 470574 1.47487e+06 11698.4 108304 276931 
153 1 44.587 35.2237 20.6192 16.4805 584742 1.30929e+06 -142802 320143 -613839 -166719 
171 1 47.2645 36.3006 18.9915 8.68958 -909381 637264 504426 -74845.3 -229336 -84186 
2980 1 49.6408 36.5028 19.1657 10.1673 -874566 482111 78378.8 -247411 -182861 -874288 
158 1 38.4149 38.0483 19.3118 0 385904 395400 612302 -358946 674959 -47395.4 
160 1 40.9195 38.6055 19.1846 6.20623 -1.32514e+06 -1.08214e+06 -884639 -129200 -736091 -798685 
166 1 43.1302 38.0405 20.3085 6.68246 445862 -560935 -700292 -197708 -369834 -840774 
168 1 47.1199 38.7757 18.2241 7.00601 -218869 80806.1 -298303 -259702 161702 -44715.1 
170 1 45.639 37.7551 20.312 5.82303 1.08531e+06 1.88233e+06 600484 834442 766135 236622 
174 1 48.3041 37.9772 20.5223 6.71047 256770 225096 -106382 554083 274056 -613131 
159 1 39.3128 40.1989 20.1791 8.41311 2.15167e+06 -15925.9 2.81337e+06 6643.57 1.23575e+06 -605063 
185 1 43.348 41.0109 18.2669 6.88584 -997399 -400620 -8092.09 -221088 -85763.5 -548745 
161 1 42.0412 40.2785 20.4329 7.1788 556433 -1.89677e+06 -398059 -42416.7 -185400 -1.03678e+06 
165 1 44.5003 40.1051 20.3256 5.00954 -1.00463e+06 -120277 128515 -30294.3 143175 84824.2 
169 1 46.8689 40.0961 20.4212 4.54658 751001 -212453 -760321 449257 -95660.8 7396.44 
193 1 48.1215 41.0002 18.3652 4.0022 466757 -1.03595e+06 -245464 168048 592005 -826637 
173 1 49.6165 40.3433 20.473 5.62506 1.26893e+06 -284479 -418569 316721 867439 -515034 
180 1 38.0302 42.5152 20.2606 9.38607 -151958 -132917 -42548.5 -289175 -129572 -826129 
184 1 40.5427 42.2925 20.3093 4.92541 834517 -3271.33 710794 -94356.3 338943 459633 
182 1 41.9966 43.1747 18.2797 6.11376 -762298 -1.0523e+06 -227430 -239350 -433200 2408.5 
188 1 43.193 42.4235 20.445 5.63244 320903 -475041 -975539 -368538 320477 208786 
186 1 44.4401 43.195 18.4192 3.89499 -529800 -68614.6 -367420 -543689 -104203 22901.2 
190 1 46.9783 43.269 18.2584 0.850776 550314 -270528 -195726 191459 -180506 -251625 
192 1 45.7054 42.3128 20.4259 5.11173 -220700 34536.3 -316637 229707 -265403 224678 
194 1 49.6329 43.0713 18.3743 1.71162 -284185 -523265 -385191 238605 258645 -234913 
196 1 48.1882 42.3101 20.3795 5.02368 1.59376e+06 -522965 -2.07527e+06 1.07984e+06 -128864 -331394 
199 1 35.5934 45.5497 18.0797 8.89172 551936 1.45166e+06 426896 -485987 -303490 328387 
176 1 36.621 44.6204 20.2735 10.2853 -295927 -816283 -869494 354693 419674 -76524.9 
207 1 40.7168 45.4905 18.443 6.09982 459601 -547182 -117689 -88885.8 -242840 -119020 
179 1 39.1433 44.589 20.4893 5.27775 823963 759241 474352 -237141 -210074 -215788 
211 1 43.2183 45.4093 18.4444 4.5197 -170614 479188 -1.63503e+06 -159292 -92210.9 -91282.2 
183 1 41.7959 44.687 20.5048 5.35136 647701 627895 -705669 277048 90089 230784 
187 1 44.4927 44.6757 20.4638 6.20331 41639.1 -210539 -743955 51919.9 -92258.9 110596 
215 1 45.7947 45.4854 18.2903 1.00416 224231 -312095 -61497.5 -101957 415259 -177037 
191 1 47.0282 44.5677 20.4644 5.50219 242253 278564 -106365 190476 58302.3 -184321 
219 1 48.3663 45.3834 18.2239 0.373644 -792538 333971 -1.25934e+06 282310 -508667 133649 
195 1 49.5926 44.6534 20.3594 5.84313 74243.9 946199 -1.64892e+06 735302 65196.2 34400.4 
197 1 34.2183 47.9042 18.2989 0 712560 740203 -669979 -964991 72891 -548071 
202 1 35.5198 46.7309 20.24 8.38394 -159218 -495215 507945 461636 -172008 -92547.1 
206 1 37.8902 46.7582 20.2227 4.98487 91513.6 724538 330442 433648 171918 33996.9 
204 1 39.2428 47.5845 18.3139 5.46344 -602056 -975212 -733655 -270674 6742.3 542019 
210 1 40.5892 46.9535 20.4627 6.11758 396581 -79651.3 -1.24566e+06 467685 306710 -217759 
208 1 41.9418 47.6336 18.431 4.78821 211058 -703642 -1.55931e+06 -563419 76552.6 -307484 
214 1 43.2196 46.8776 20.4594 6.11591 153109 -785323 419084 195491 -1.01745e+06 -665948 
218 1 45.7224 46.8368 20.3223 5.50332 169284 22965.2 124829 -43491.3 39179.8 -78650.4 
222 1 48.3026 46.8655 20.2188 6.4133 202309 46404 133786 -186850 195748 -114504 
198 1 34.4807 49.0726 20.3241 15.0964 -306975 -54149.5 -1.19211e+06 132143 103862 53654.2 
223 1 35.5409 49.9824 18.352 5.06985 -758315 -1.12578e+06 -389595 -442578 15286.6 546733 
201 1 36.8787 49.0545 20.296 5.2907 -652389 236666 304598 115635 -170743 206915 
205 1 39.344 49.0719 20.4908 6.61883 -191220 109588 -718860 650087 34614.5 618775 
225 1 40.5617 49.7059 18.4097 4.41767 -1.12216e+06 31263.4 -1.32803e+06 -355150 -568481 1627.03 
209 1 41.9418 49.098 20.3318 5.64418 204003 -101616 -1.27432e+06 -604581 -235150 -139247 
213 1 44.5342 49.0046 20.281 5.30521 -47051.3 -204707 -740157 -836420 608176 149044 
227 1 45.6592 49.8554 18.4114 2.64893 -406289 -1.15811e+06 -1.97143e+06 -455757 64988.1 -146392 
217 1 47.0893 49.0863 20.2862 6.26509 -738100 -313888 -127939 -156256 -199132 145945 
221 1 49.5452 48.9648 20.3018 5.60652 -646420 -141695 -346680 83559.3 -883.266 -42734.4 
157 1 49.6607 34.6494 21.2003 10.9093 -1.48388e+06 1.53733e+06 658854 976648 376866 401737 
230 1 48.3924 34.1157 23.2867 0 309366 -657755 1.65321e+06 -777839 998016 -856611 
162 1 40.2494 37.3602 21.0713 18.4137 1.24018e+06 296020 321567 -239188 748604 -141932 
239 1 43.5187 36.5 22.4517 11.8114 290265 694750 815079 -131570 234314 146850 
155 1 47.1652 34.972 21.0002 7.86122 608498 -682060 2.31548e+06 -596939 1.31204e+06 -1.09351e+06 
243 1 45.9802 36.4752 22.4134 8.49854 -292088 -617172 187645 602479 270424 -283304 
247 1 48.4645 36.4347 22.4975 9.16246 -98174.7 337822 -366036 -1.5573e+06 7397.79 -59936.2 
234 1 39.3242 38.7632 22.6135 0 1.00109e+06 131041 440423 451525 -31648.8 -1.30221e+06 
236 1 42.0253 38.6728 22.4172 7.24735 1.92072e+06 732753 -227897 124653 399333 -99445.7 
240 1 44.5906 38.7514 22.3855 5.25676 -827528 -333514 -428467 441461 -43819 -131699 
244 1 46.9794 38.7861 22.4651 6.09247 -296937 1.32653e+06 456090 -752190 1.14018e+06 778513 
248 1 49.5274 38.7083 22.6215 6.43786 -403119 -355846 -845311 8518.91 169059 66437.7 
253 1 38.3214 41.0589 22.4785 0 -361702 -20177 481661 -133841 37371.1 -479820 
257 1 40.7581 40.9281 22.3941 5.14688 -45938.4 186742 496645 462869 1.10633e+06 709975 
261 1 43.3107 40.9435 22.3591 6.02938 -484652 -409161 -850395 -55024 -286349 -326.215 
265 1 45.8077 41.0359 22.4497 4.70243 -612598 -526673 -764742 92519.2 301485 100141 
269 1 48.2885 40.9897 22.3953 6.29024 -391119 -454907 -799260 247051 200145 80729.1 
251 1 37.1672 43.3757 22.3486 0 -1.38691e+06 -1.18311e+06 -490071 -409665 -27685.7 -275467 
254 1 39.4917 43.236 22.4996 4.63179 -1.01134e+06 235024 48862.1 -1.17059e+06 -20596.8 157009 
258 1 42.0729 43.2003 22.51 5.33861 266346 1.34316e+06 -816935 -497173 938882 506858 
262 1 44.5564 43.2433 22.4763 5.49232 -754852 -361340 -887428 -55463.7 -3720.77 421329 
266 1 47.1053 43.1349 22.499 5.58042 -1.05811e+06 -562273 -529117 149495 -64703.5 51008.4 
270 1 49.512 43.2667 22.3421 6.64719 -897252 -695433 -487161 -112316 40024.9 19063.6 
275 1 35.6252 45.3934 22.3212 0 -166026 34201.4 -302978 160135 99940.8 -93830.1 
279 1 38.0974 45.4997 22.5432 5.32312 -1.4475e+06 -275698 -327342 -1.44075e+06 116635 -313419 
283 1 40.5213 45.458 22.4508 6.67429 855518 1.03371e+06 -1.73173e+06 -1.01276e+06 160709 256243 
287 1 43.2463 45.4561 22.4892 6.03374 1.2776e+06 -376075 -957238 -93379.1 198712 -11405.8 
291 1 45.8668 45.3398 22.492 5.03937 -213533 332799 -500549 -422319 -31484.4 -119066 
295 1 48.3651 45.4369 22.4346 5.79262 -1.09019e+06 -870190 247465 92994.3 -403739 -469185 
273 1 34.4628 47.7598 22.3468 0 -839417 18750.5 497976 -308374 -294707 733612 
276 1 36.796 47.6795 22.4518 5.16071 -1.00775e+06 265771 420434 210628 328304 313279 
280 1 39.3043 47.7162 22.4003 6.61414 76004.4 -1.08312e+06 431735 244282 -170931 -139543 
284 1 41.883 47.7097 22.4523 6.093 -212143 -340549 -513350 135185 -345452 -342045 
288 1 44.4158 47.7141 22.5035 5.61313 8896.02 -35605.9 -360390 -178906 -70467.2 35459.2 
292 1 47.0158 47.6064 22.4233 6.36314 497492 216448 326063 36184.7 -213530 75908.1 
296 1 49.6092 47.4908 22.3636 5.51834 73172 -491355 667462 -21739.8 -16143.3 -69278.7 
379 1 45.8603 49.6928 26.5452 5.51576 735562 -86973.6 -401984 -318000 -28919.3 -273697 
130 1 36.7815 46.9624 13.6525 9.92316 726059 -581494 888550 -463809 -905239 -428348 
301 1 40.6616 49.8404 22.4628 5.78169 -52443 50581.5 -137598 -212326 -42248.8 16112.6 
302 1 43.27 49.7852 22.4837 5.69151 -97944.3 -451534 81807.1 -66971.7 -78062.1 -15007.1 
303 1 45.7751 49.9291 22.4188 5.85743 -276021 -621251 -341213 160369 -192769 324012 
304 1 48.3325 49.7616 22.4241 5.6913 477174 792091 -733940 -129049 76229.6 366527 
229 1 44.6075 35.8822 24.5846 0 -495138 -373367 20565.2 -201165 102388 -32980.2 
231 1 47.0477 35.6786 24.6408 10.4324 483208 333018 351611 609127 789710 62165.7 
233 1 49.6798 35.5971 24.7129 5.14788 411650 1.01042e+06 584990 -164149 -87901 -82770.1 
238 1 40.6652 38.3344 24.5142 17.5831 -247794 -358286 -248558 108283 -107683 56398.7 
242 1 43.1385 37.9459 24.6104 7.92015 447356 741303 400796 368583 181644 173333 
246 1 45.7576 37.9438 24.5235 5.12417 292707 -376099 352590 253075 151647 251333 
250 1 48.3605 37.9674 24.5962 5.5157 974464 1.3088e+06 -203110 -265988 362294 390296 
235 1 39.4571 40.4325 24.6231 7.43679 -786147 -20622 -262659 56360.9 -213052 262383 
237 1 42.0518 40.3165 24.4736 6.08541 -641527 -70642.4 -265018 -192250 2622.94 100287 
241 1 44.5973 40.1693 24.5125 5.77093 -229645 595119 437919 38334.4 20887.6 -91832.1 
245 1 47.0205 40.3347 24.6823 6.78148 -78423.1 599655 -214538 -149502 -111014 55924.3 
249 1 49.6675 40.2619 24.5366 6.33885 449274 101366 -402329 134159 193166 311813 
256 1 37.9797 42.4886 24.5088 9.11468 410899 245046 -21527.6 189591 417537 51933.5 
260 1 40.7345 42.4896 24.5511 6.1811 -166467 -406880 -120725 -264054 -77180.2 258511 
264 1 43.2757 42.5224 24.4824 6.01614 -898885 255991 -479923 25492.1 -68413.1 324048 
268 1 45.6709 42.4785 24.5251 5.22974 -640617 -65689.2 -693608 64957.2 -241335 114866 
272 1 48.3092 42.3948 24.5569 5.51909 179071 122890 92832.2 -35904.4 -95037.4 111953 
252 1 36.7534 44.6412 24.4933 9.14728 214764 60316.2 -77765.1 -41040.7 57860.6 87632.2 
255 1 39.3369 44.6908 24.5604 5.76565 108738 604151 470331 -22403.8 6416.62 111677 
259 1 41.8309 44.7378 24.4475 5.88454 -263028 -314399 -263375 -87834.9 3209.02 -56831.6 
263 1 44.4791 44.7865 24.6413 6.06127 -213785 -315292 373589 117691 83952 -41375.9 
267 1 46.9424 44.6473 24.6453 4.98656 -31279.3 -44326.5 -219174 135671 -733483 124946 
271 1 49.5288 44.6934 24.5604 5.37612 109584 645438 -464368 394681 160271 -18506.1 
278 1 35.3345 46.7829 24.4312 11.1034 799975 566651 903178 -438149 327697 821532 
282 1 37.8721 46.8885 24.6404 5.32189 1.17465e+06 267010 -453027 383064 -515833 -1.1612e+06 
286 1 40.5493 46.9508 24.6472 6.41973 1.00771e+06 -223398 160735 -37517.7 139504 -319832 
290 1 43.1776 46.8942 24.4891 5.89402 -471308 -403091 -517464 269122 32307.5 -14162.5 
294 1 45.6289 46.9149 24.5828 4.83152 -480278 113269 -268169 -7704.06 -149251 -238916 
298 1 48.1517 46.8561 24.4988 4.91558 1.68189e+06 -114951 -213510 198303 -2269.93 -147610 
274 1 34.3096 49.2249 24.6573 0 -253622 387578 439154 -367175 -441059 356367 
277 1 36.7474 49.1107 24.674 6.1232 53398.8 300507 -213470 521604 -302617 -54084.1 
281 1 39.3395 49.1705 24.4323 7.11082 3751.45 588434 -197583 30223.6 -920.718 -50211.4 
285 1 41.8506 49.0113 24.533 5.60942 -158292 -262484 -747551 100208 93238.1 -240069 
289 1 44.455 49.2104 24.6148 5.38222 192099 -341913 -916129 169132 -237499 -50448 
293 1 47.092 49.2341 24.487 5.29302 121587 451586 -289111 85843.6 373197 -294163 
297 1 49.6301 49.0424 24.4759 6.68207 279841 15068.5 837516 350297 -361365 730439 
306 1 47.6194 34.4723 26.6827 0 -176085 -309147 -728063 -217661 161330 -376053 
308 1 49.9698 34.3857 26.7384 25.032 -512520 129596 376012 198408 -15827.1 6674.03 
315 1 43.4729 36.5039 26.6623 0 -178849 747102 320110 -359896 -41532.7 59334.1 
319 1 45.9417 36.5126 26.6704 7.34843 -81500 241938 -756421 68480 204053 -201522 
323 1 48.4875 36.757 26.7075 4.88454 -74981.5 -1.19927e+06 -536986 134793 340314 128161 
310 1 39.5325 38.9235 26.6313 0 -312574 -5846.6 -252975 -301004 62340.9 107473 
312 1 42.0418 38.7873 26.6785 6.8039 137757 613958 -639695 108974 99981 510637 
316 1 44.6557 38.7673 26.7848 5.8517 15739.6 725587 484965 564.162 -59023.5 83359.2 
320 1 47.1006 38.8126 26.6761 6.34287 -679212 -181565 -239406 311284 29997.4 356592 
324 1 49.7744 38.9209 26.522 5.78813 -574262 -519105 514713 -554176 536141 111504 
329 1 38.0299 41.0415 26.626 0 700513 832359 471271 -211857 4869.49 -19710.5 
333 1 40.8445 40.9415 26.6191 5.12538 -32754.5 -325088 -231267 -144519 -360816 -15602.1 
337 1 43.3499 41.0747 26.5632 5.76698 -7163.79 -209011 1.42914e+06 -159629 -823262 -882830 
341 1 45.8072 41.1134 26.666 5.43203 -1.11907e+06 -187434 -61157.7 354684 -92146.9 -144690 
345 1 48.2556 41.0821 26.6896 5.99525 476689 -310256 -539627 -167585 -272615 -80313 
327 1 36.7179 43.2152 26.5832 0 -713857 855521 472835 -258975 -64801.7 -138885 
330 1 39.4743 43.1067 26.6934 5.77282 -321989 1.06092e+06 614063 152574 -30626.2 -138568 
334 1 42.0369 43.3012 26.5903 5.59475 -87354.4 -79813.6 137757 55344.6 -136826 -284648 
338 1 44.4946 43.2051 26.7663 6.32129 -538422 -215266 -285003 -225755 -58779.6 -84735.6 
342 1 47.0577 43.2968 26.5967 6.35614 -163124 -895963 -795010 27993.5 -8549.19 223709 
346 1 49.6785 43.1672 26.6857 5.46843 -684157 -554228 -725402 325244 -16439.4 152793 
351 1 35.581 45.5498 26.6361 0 82616.9 275164 -8594.65 -357241 -89002.5 65274.2 
355 1 38.0708 45.2602 26.8004 6.71787 22832.2 717749 402165 -17973 -523935 -145628 
359 1 40.6608 45.4576 26.6969 6.3522 -245020 -2261.6 -263242 163209 -16498 168564 
363 1 43.1623 45.5359 26.6467 5.92318 205228 -78426.1 -412162 -299008 601470 125390 
367 1 45.8851 45.4647 26.7491 5.04204 -119619 -841997 -446223 -346270 1828.41 -105541 
371 1 48.4621 45.3388 26.6156 4.94704 -862594 -141903 -1.04527e+06 -12609.4 109778 -269518 
349 1 34.2345 47.8486 26.7466 0 502278 54651 805175 -478780 -466911 355603 
352 1 36.8251 47.6783 26.6346 5.78862 -241186 240718 -1.04236e+06 -217529 677275 -123230 
356 1 39.2204 47.5939 26.5787 6.00309 -275463 481826 -821188 117993 80240 -519648 
360 1 41.9354 47.6562 26.6942 5.85761 277992 -919746 -841731 66851.6 -138487 -424160 
364 1 44.5252 47.7034 26.6047 5.67012 -856226 -459948 -737103 -344393 198257 -128814 
368 1 46.9764 47.4848 26.5587 5.85367 -1.04566e+06 -954199 17792.5 -339280 140046 -327396 
372 1 49.4871 47.7317 26.6042 6.08095 -51839.6 -495419 -502674 553413 154933 36053.8 
377 1 40.5823 49.7728 26.5422 6.44282 146297 218065 -576917 247295 19923.9 269853 
376 1 37.996 49.9932 26.542 5.94039 593664 -138291 -779895 -292910 -211521 602077 
147 1 33.4937 49.9797 16.8771 0 173594 864200 124578 93585.2 61383.9 -94130.3 
100 1 38.2592 43.289 13.4023 9.3271 168433 -1.35586e+06 3.18609e+06 -1.77894e+06 -906205 -843585 
305 1 44.6768 36.0155 28.8 0 -304755 -531660 -303489 -679747 -49522.8 -5564.96 
307 1 47.211 35.5766 28.6622 9.6078 669560 1.9148e+06 125710 158296 634621 207590 