ITEM: TIMESTEP
10000
ITEM: NUMBER OF ATOMS
5538
ITEM: BOX BOUNDS pp pp pp
0.102528 99.8975
0.375086 99.6249
-1.27766 101.278
ITEM: ATOMS id type x y z c_csym c_2[1] c_2[2] c_2[3] c_2[4] c_2[5] c_2[6] 
4 1 49.1041 37.9453 8.42482 0 77982.7 -280336 -158505 -38244.7 -141227 201525 
6 1 41.476 40.2016 7.91382 0 -146648 -241759 -271920 22326.5 231565 66944 
10 1 43.8087 40.7783 8.20814 0 -25738.6 861108 792902 401418 95996.9 58847.2 
47 1 37.6531 44.6655 7.65702 0 -875929 -1.62867e+06 -507393 587427 -47798.6 546167 
60 1 43.426 48.2493 8.48344 0 327834 -69831.5 550096 -29976.4 -199871 -346362 
5 1 48.314 36.6725 10.391 0 2.3273e+06 1.65506e+06 -272493 -244891 818816 -450046 
8 1 42.0429 38.3862 11.123 0 1.10604e+06 -25319.8 718702 99217.5 139876 -149794 
2 1 46.838 38.4523 9.1418 0 1.96289e+06 352074 127050 -691665 -332354 776754 
3 1 45.8388 37.317 10.9934 13.0345 -380368 -950530 -1.83067e+06 340236 391136 777006 
2851 1 49.7261 39.1325 10.6734 10.2881 135074 950729 -492201 453536 616013 -339473 
29 1 40.2306 39.0217 9.54264 0 -367735 -528535 186339 -509334 271273 -116460 
9 1 42.2047 40.5812 10.255 9.00938 137057 -246698 -73340.8 -686373 -271282 -373537 
15 1 44.3959 39.0515 10.0117 9.75185 2.90795e+06 731444 2.31074e+06 227751 -1.21739e+06 -27307.9 
1 1 46.1052 40.8233 9.00378 0 703772 1.41383e+06 328902 219894 -187602 447821 
16 1 47.4364 40.1237 10.9709 7.84594 160253 789573 722728 -193296 111674 -166522 
25 1 37.9369 42.6916 8.89663 0 432098 -402227 -365711 -242600 -107272 247835 
7 1 40.0315 41.4338 9.41906 0 341230 791175 652345 229474 222851 236457 
11 1 45.046 43.1283 8.53492 0 52935.3 1.53543e+06 -43281.4 778489 892276 695817 
33 1 44.0572 42.1553 10.5043 11.3969 249501 -395157 3383.62 -249702 -10139.6 380644 
14 1 47.2844 43.0272 9.91417 10.4734 2.14005e+06 2.18398e+06 -692614 -601673 47571.7 -603322 
2854 1 49.3457 41.5661 10.3686 11.9521 463809 22325.9 -458079 -339537 579896 -454479 
24 1 36.0044 44.2984 9.22138 0 109043 -1.00729e+06 -168427 -510412 492145 -355831 
32 1 39.8857 44.0795 9.57034 13.3001 -1.19925e+06 -738736 -389411 280913 377065 -619115 
35 1 43.6295 44.4332 10.0529 11.4924 296732 -944758 338904 724101 -173163 -70397.7 
39 1 45.9142 45.3905 9.67113 15.2773 399275 2.68013e+06 20290.3 -350838 -211834 171892 
65 1 45.9678 49.2812 11.767 10.2835 2.70409e+06 1.35489e+06 800942 1.13787e+06 -80919.7 -635848 
50 1 36.6986 46.6724 7.73109 0 -118815 -931729 634647 623843 -177711 232212 
48 1 35.9363 46.3341 10.1353 14.0431 -214421 -1.67005e+06 186783 -494401 -252075 -1.05511e+06 
23 1 38.3395 45.7715 9.5984 9.0069 119956 -1.46967e+06 -39414.5 900626 191946 -132033 
31 1 40.6035 45.9953 10.6897 8.89762 -91706.1 193048 -756843 -5513.61 -780361 -1.4976e+06 
63 1 42.9394 46.656 10.4587 8.46934 -1.77688e+06 -1.16147e+06 -1.32596e+06 10143.4 232331 -249937 
66 1 45.1779 47.5241 10.2176 15.2532 -689474 -601.343 -1.62889e+06 -632525 222696 -117698 
43 1 48.0925 46.4651 9.93678 14.8441 766559 493882 1.22448e+06 619541 -108993 -28992.3 
45 1 37.624 48.0247 9.64478 14.8895 -465381 -1.51434e+06 1.32263e+06 -238077 -1.63693e+06 -206041 
52 1 39.2681 48.2495 11.201 9.29532 -930252 -1.46035e+06 73526.5 -1.10607e+06 -434169 291587 
62 1 41.3756 48.4361 9.95696 14.326 -348565 2.76732e+06 1.50965e+06 -311127 -999144 723814 
61 1 43.7878 49.8151 10.2697 11.2656 1.17626e+06 676056 -836255 -1.50254e+06 1.32798e+06 -271057 
2853 1 49.6697 43.8909 9.25148 0 920672 268263 -838259 228526 -268768 -401466 
19 1 45.7657 36.3029 13.1391 15.0245 1.0691e+06 -766861 -559235 96463 -388841 802969 
22 1 47.9568 35.4318 12.5343 0 -176828 250709 59687.7 12002.6 564490 373667 
76 1 48.2699 48.7222 12.6843 6.90032 -920709 1.94932e+06 -1.04056e+06 -351396 -77612.3 440474 
18 1 44.1068 38.0158 12.4152 9.57711 -1.46944e+06 -1.58114e+06 -192061 479917 58730.1 -139868 
21 1 47.7638 37.8991 12.4275 10.2051 189944 1.0056e+06 -393712 -298828 329946 -527022 
12 1 41.3769 40.9169 12.4237 6.83916 789219 -233053 -61159.8 -285841 54381.8 -439059 
13 1 45.2565 40.4887 11.9359 9.17465 333730 -262753 611548 196213 1.09398e+06 553679 
41 1 49.1459 40.0438 12.7859 5.58372 -406172 294764 -881798 -100556 -90890.9 -278185 
26 1 39.1267 41.9728 11.6941 11.786 1.58888e+06 494333 1.13524e+06 -115018 -704729 305879 
30 1 41.6916 42.9683 10.9371 7.35979 2.3695e+06 1.18119e+06 688876 680209 -108849 305970 
36 1 43.3303 42.2874 12.7937 7.45387 -1.88724e+06 1.40725e+06 -975604 -583045 305883 -1.03476e+06 
40 1 45.599 42.8238 12.2455 8.51491 -308175 -430732 -844248 -361792 264095 -135368 
44 1 48.102 42.1923 12.1981 6.49742 858277 -340819 207981 519549 449012 -350203 
51 1 36.1897 44.8412 12.1709 12.6396 -548789 198681 -280686 790143 835665 -757464 
28 1 37.7722 43.9 10.9875 9.38487 -1.44638e+06 -974948 -173308 686260 1.20019e+06 -1.31181e+06 
27 1 39.7651 44.317 12.3786 8.86821 645805 175375 6581.65 -144498 -1.30656e+06 -273332 
59 1 42.3223 45.1022 12.1691 5.1898 509247 -407461 10148.2 454104 -275244 465691 
64 1 44.8902 45.1599 12.0579 6.36212 244176 600821 1.39638e+06 -86666.5 12821.9 1.01944e+06 
38 1 47.3954 44.4911 11.6593 6.6924 97383.3 -630253 -1.18937e+06 297882 -1.10956e+06 -589718 
2876 1 49.7347 48.3947 10.9118 17.2644 481168 1.09024e+06 -185029 361239 821112 383320 
49 1 34.2662 46.6003 11.9912 0 586154 272964 -462916 -223440 -88501.8 -195644 
54 1 38.2602 46.204 11.9795 7.64949 793688 -214671 5988.82 -427172 -99767.1 11865.6 
58 1 41.3944 47.3749 12.4042 7.11434 1.24292e+06 -2.19338e+06 -1.43232e+06 -196005 -198840 -1.17798e+06 
75 1 44.032 47.5461 12.2457 7.77403 1.0784e+06 -206353 -3.11423e+06 975808 -1.52238e+06 -592138 
70 1 46.5284 46.892 12.0098 2.84119 1.53274e+06 -509799 -946484 -683061 -215940 114305 
68 1 49.2521 46.1316 12.3547 5.60285 4.14292e+06 1.65683e+06 -1.04954e+06 -824956 292186 -64958.6 
71 1 36.3511 47.8942 12.1151 7.4826 1.02731e+06 84105.6 1.74792e+06 -920416 -1.2527e+06 -62498 
53 1 37.7886 49.6682 12.8609 5.743 -279051 1.32967e+06 -182704 -870161 463599 839090 
56 1 42.4307 49.3867 11.9699 7.9859 -839773 -1.53269e+06 -138951 -903702 1.05465e+06 445198 
90 1 43.3408 36.6434 14.013 14.8831 1.34948e+06 -761495 291804 -647385 -129740 749456 
94 1 45.1461 35.4703 15.3269 11.4931 867263 423340 -423068 112978 -506218 155783 
98 1 47.618 36.1145 14.9452 9.7666 304120 227053 -453756 110064 163991 283461 
226 1 43.1195 49.9132 18.1451 4.18544 619665 1.44812e+06 755455 597957 -288381 115852 
85 1 40.2668 39.6172 15.3587 12.7041 -805687 -809314 139664 102656 -311263 41282.9 
84 1 41.4199 37.4787 15.4789 0 -45763.7 -415693 -811714 591889 102721 800649 
113 1 44.046 38.1647 15.7739 8.52224 -609688 -412719 1.84833e+06 801783 -1.12312e+06 -1.09349e+06 
93 1 45.9039 38.5529 13.9608 9.10414 -558852 -310969 262153 548632 -1.12428e+06 -120242 
97 1 48.2674 38.5806 14.7615 10.3012 -405406 1.2916e+06 1.42849e+06 602539 -685645 -1.0861e+06 
112 1 42.0631 41.1296 14.9661 7.29096 -681756 659513 148118 -400045 104676 860106 
89 1 44.0811 39.9419 13.7634 10.3496 -841375 1.4099e+06 92421.8 -788837 117823 -1.89382e+06 
17 1 46.9189 40.7508 13.9924 9.95853 1.34477e+06 574551 131595 157366 331502 -27009.1 
108 1 39.5506 41.5513 14.1613 11.3002 897539 335014 837598 -335727 18797.6 17536.1 
37 1 45.0043 42.1348 14.4314 7.27253 -804780 -400513 -1.15689e+06 61646.2 -724062 179972 
114 1 46.9892 42.5416 15.8152 6.98348 853321 -142604 884408 -175386 -83848.6 -202721 
120 1 49.2505 41.9014 14.5731 7.30399 2.1036e+06 -719878 700791 -78732 -600597 -160170 
123 1 35.3828 44.1458 14.604 21.2392 448786 622134 980129 -433015 -1.6266e+06 -693841 
224 1 38.1312 49.9404 18.228 1.87339 -284057 -289306 -103092 831267 -546003 -302181 
107 1 41.4005 43.1334 13.7525 7.64646 834.236 -216800 -519295 884512 167765 -448013 
111 1 43.6478 44.3408 14.1275 6.96684 632790 -372638 1.22212e+06 493796 -118928 -237482 
34 1 46.2238 44.4227 14.0146 5.25503 93963.6 1.24841e+06 131483 -290406 67103.5 -635619 
67 1 48.5564 44.1307 13.7312 5.95364 -575058 632442 -1.73898e+06 -128662 -253263 312801 
118 1 49.1845 43.8239 15.9529 4.75411 -2.2039e+06 -1.09623e+06 -2.08837e+06 1.5467e+06 250522 -400914 
130 1 36.398 46.4897 13.9512 6.05731 -1.40747e+06 1.5125e+06 248405 385308 306423 -1.03981e+06 
103 1 38.3454 45.3879 14.271 10.3404 -2.7692e+06 -437760 -1.35728e+06 475448 -603673 415184 
55 1 40.7478 45.5216 14.1523 7.54162 -2.04169e+06 536619 -851383 -875595 -440315 -361969 
138 1 42.8497 46.5513 14.2622 5.32992 -2.43181e+06 102882 1.63909e+06 12783.8 -572016 2.00049e+06 
142 1 45.22 46.8793 14.0794 3.70438 -3.08958e+06 639262 -2.27449e+06 -296051 -934808 1.10067e+06 
146 1 47.6223 46.5605 14.2587 6.21225 -1.465e+06 2.67941e+06 -983675 -994103 -64062.4 -395064 
126 1 34.1667 47.5812 14.0832 0 123326 622560 -1.21652e+06 98182.8 98787.9 -176505 
100 1 37.6624 43.3201 13.5436 10.1951 1.48896e+06 401826 1.56065e+06 -756669 -424822 -203533 
129 1 37.1347 48.6915 14.7956 7.609 -484557 -92869.8 -1.15858e+06 325695 133475 394770 
133 1 41.614 48.8095 14.3491 6.99573 -1.81752e+06 -1.35016e+06 -1.32051e+06 933082 -964329 -275234 
137 1 44.043 49.1358 14.1339 5.27182 -222920 1.06371e+06 2.03094e+06 -201672 -1.97932e+06 -1.48571e+06 
141 1 46.4749 49.0125 14.3409 6.47723 -353182 737745 -26451.3 -1.30458e+06 569052 -262454 
145 1 48.2411 48.59 16.1722 5.45703 7431.18 -349749 2.18159e+06 -235898 -1.85903e+06 -1.29451e+06 
77 1 41.5321 34.5733 18.348 0 -483754 -839104 -281764 451281 -300604 253741 
79 1 45.3675 33.4262 16.6302 0 -950407 -584376 -1.01714e+06 121850 -125078 -351766 
91 1 43.9521 34.4729 18.1991 0 -1.08055e+06 -1.29544e+06 774201 -790536 242353 452304 
78 1 47.6086 32.8241 17.1231 0 194740 303131 -72087.4 104309 176507 29157.9 
81 1 49.0467 34.727 16.4338 9.01601 -1.12601e+06 -84896.5 13548.6 340655 43941.7 -360072 
72 1 35.299 49.7959 13.4567 13.3421 -362884 881149 -996087 61933.6 466736 255520 
82 1 40.621 36.4575 17.4976 18.8013 -246781 333403 -565021 316855 201685 606020 
87 1 42.7262 35.5988 16.4034 12.0269 574922 -375199 697103 114901 -465539 -647179 
167 1 45.0345 36.3635 18.2103 9.9367 -2.42203e+06 -492506 960804 22417.8 937736 455893 
95 1 46.7419 35.3417 17.0696 6.20828 -1.23914e+06 -1.1466e+06 -1.07398e+06 -519780 623255 -791231 
83 1 39.0426 38.597 17.3181 12.3395 474503 1.0763e+06 1.04879e+06 -453688 217753 -399891 
163 1 42.8905 37.3522 17.9137 8.16895 -477002 -396505 20967.4 33009.7 -455834 -812569 
164 1 44.7545 39.0056 18.2027 8.50257 -759530 1.35074e+06 1.03274e+06 -1.02257e+06 -937365 677820 
92 1 46.1266 37.6735 16.3666 6.16262 -277796 2.55635e+06 -125008 1.36385e+06 -2.40165e+06 252034 
168 1 47.1183 38.8293 18.2595 7.28844 -1.27967e+06 1.41425e+06 -3.08395e+06 -763816 -892925 995385 
96 1 48.6835 37.1386 16.9063 7.83099 -29474 538526 486730 -992585 -319894 -17752.7 
172 1 49.5148 39.0807 18.2773 6.84042 -646434 -1.29146e+06 -138135 -140128 241562 100283 
105 1 38.0311 40.4267 15.8343 15.224 -69923.1 503510 679748 271867 62097.1 -135788 
177 1 38.247 40.7819 18.3764 8.62788 712.348 427094 -753589 -453804 -513322 133043 
181 1 40.6782 41.2303 18.1643 7.58013 494760 -164065 -979784 -403531 -316379 149583 
109 1 42.1677 39.5208 16.8215 5.15299 1.09491e+06 1.01283e+06 211654 309086 -463712 366055 
185 1 43.256 41.2841 18.2391 7.43258 990525 871236 513336 -279816 -280088 -183746 
116 1 44.6247 40.4251 16.1372 5.91771 1.39197e+06 -461243 -432938 -130251 -360455 -204584 
189 1 45.8979 41.2616 18.1711 4.02909 523508 2.05244e+06 -496565 -833140 180298 46642.1 
117 1 47.0047 40.1843 16.2683 3.38102 1.50066e+06 1.84824e+06 -2.5907e+06 799399 27324.1 555730 
193 1 48.4465 41.2045 18.1125 4.88352 175964 2.59718e+06 427110 -419489 -126632 231240 
2924 1 49.6851 40.1449 16.1012 7.16005 1.244e+06 20671.8 -610857 -22635.1 12954.6 438713 
104 1 35.9402 40.8107 17.1154 0 478715 1.35028e+06 249587 38330.5 270748 -13490.4 
102 1 38.2272 42.9133 15.8657 9.71152 879876 -253006 -113172 -764682 52556.3 91819.9 
106 1 40.7453 42.8086 16.146 6.89184 421585 -989118 -155321 729565 250820 -308990 
178 1 39.1883 43.2331 18.1208 4.88019 -1.51117e+06 509906 -841585 433890 389291 476297 
110 1 43.2748 42.692 16.1563 5.87967 -805159 850603 1.53262e+06 -1.21557e+06 573209 324973 
182 1 41.8186 43.4204 18.1845 5.14262 81819.6 -500959 -229530 -320252 -390629 -134512 
190 1 47.0455 43.6991 18.1538 2.71459 1.03073e+06 569621 -485190 -1.31156e+06 1.3776e+06 356022 
194 1 49.6428 43.5093 18.2397 3.33812 93110 1.34448e+06 34579.6 -1.08489e+06 -999355 624814 
99 1 34.7081 42.838 16.8725 0 -1.02594e+06 2.62126e+06 1.29905e+06 1.20089e+06 -149703 549783 
127 1 36.7642 44.9364 16.1467 2.84527 -1.93946e+06 212858 -678705 -1.10931e+06 44352.5 -1.28886e+06 
175 1 36.8429 43.0854 17.8625 9.7015 -1.60219e+06 1.88785e+06 843622 -1.08872e+06 435293 635564 
131 1 39.5405 44.7616 16.1441 5.98493 -1.39597e+06 -1.85635e+06 -1.00754e+06 -223996 -577528 488017 
135 1 42.0881 45.0192 16.0659 4.71449 -131690 565062 130374 50467.5 -498280 414709 
211 1 43.1053 45.5894 18.34 4.14653 -335568 -1.42519e+06 568906 484755 337460 -447883 
115 1 45.182 44.0802 16.2427 4.73619 -1.94962e+06 -960107 396517 -1.08523e+06 2.25023e+06 1.48322e+06 
143 1 47.3247 45.1034 16.195 3.33573 -1.74995e+06 -2.11588e+06 -421537 -369349 -550815 1.17776e+06 
215 1 45.8322 45.7333 18.3366 3.84052 -561643 -1.17436e+06 3.15054e+06 660370 -1.74106e+06 -246794 
219 1 48.4385 45.783 18.2865 3.55826 -1.90236e+06 -1.14401e+06 -1.52765e+06 -549622 224566 -288028 
121 1 33.7059 45.2266 16.0379 0 899819 1.71964e+06 557254 -411847 465684 -25694.3 
122 1 33.0567 47.6813 16.159 0 -367194 936958 -661642 -128390 62866.7 224689 
124 1 35.4692 47.1786 16.2405 7.3304 795968 648653 -1.2592e+06 216366 -636685 -131999 
128 1 38.1439 46.9912 16.1565 6.37 1.0284e+06 -369768 -104157 -358579 -557866 74610.8 
132 1 40.7729 47.1871 16.0852 5.91271 -41976.4 462440 1.70498e+06 -246312 389946 -221747 
139 1 44.3182 46.2001 16.2115 4.34783 -1.79212e+06 -577093 -826014 -1.00168e+06 -327493 103882 
140 1 46.2557 47.2861 16.1247 5.44077 -3.16081e+06 -747570 -1.0835e+06 -1.27979e+06 -1.14948e+06 -2.56344e+06 
216 1 46.9928 47.7898 18.4605 3.29588 -146871 -2.13824e+06 -192172 -1.39848e+06 -1.51444e+06 -1.24755e+06 
144 1 49.4253 46.3839 15.977 6.35891 221253 1.03061e+06 2.73248e+06 -532958 1.74176e+06 -647429 
220 1 49.5668 47.9007 18.1911 0.627865 265139 -331653 1.05014e+06 -130645 -42879.2 -124895 
134 1 39.316 47.777 13.8395 6.66094 719896 2.99201e+06 1.8392e+06 1056.52 259508 -173701 
125 1 34.9727 49.5505 15.7198 7.7108 -173360 528554 -699506 -256845 161663 308793 
149 1 39.3234 49.1937 16.0451 8.13506 1.62147e+06 -349353 529566 -1.07067e+06 249434 528400 
136 1 42.8282 48.3745 16.3486 5.13599 -3.09259e+06 293751 988697 -1.04168e+06 -3.04874e+06 928836 
223 1 35.4883 49.8935 18.2815 5.78635 908921 219740 1.47283e+06 -395251 -211780 -3931.01 
212 1 44.3884 47.7381 18.3598 1.64051 -541833 -770402 -542310 351620 -271341 26495.1 
151 1 44.9434 49.2759 16.3514 5.49438 -2.0028e+06 -701380 -2.30276e+06 -1.23136e+06 -1.36842e+06 -472962 
301 1 40.6791 49.904 22.3774 6.16422 389610 217997 192680 -504719 17721.4 118361 
154 1 46.1244 33.6622 18.8837 0 -122444 87118.3 -697570 144552 -417806 343408 
156 1 48.598 34.4111 18.8422 10.4964 479886 -87608.4 142379 -138452 549163 -506337 
86 1 42.7034 35.9559 19.9199 13.6801 -519160 49194.7 753569 -104552 -352019 218556 
153 1 44.9084 35.3215 20.4813 16.7418 -912190 2.09994e+06 1.0919e+06 544794 -573736 714703 
171 1 47.3843 36.5777 18.9492 8.68052 -1.71951e+06 -1.71766e+06 -1.2655e+06 301188 -321057 -678142 
2980 1 49.8372 36.6939 18.9683 7.26271 -973963 -351934 -389088 169057 -273806 -529100 
157 1 49.7797 34.9532 20.9649 9.62588 -855346 580858 -437375 208801 113448 -193303 
158 1 38.8102 38.0969 19.8587 0 -883248 -278067 3.28648e+06 1.26415e+06 1.16851e+06 1.11593e+06 
160 1 41.0491 38.7299 18.7896 6.76311 148078 575195 -463182 127018 414490 571582 
162 1 40.9649 37.4745 20.8333 13.9961 -1.17539e+06 -483121 -666566 455742 -181628 -37609.5 
166 1 43.245 38.3183 20.1499 9.87875 564541 -176407 32023.8 55646.5 694427 -409443 
170 1 45.8824 38.0353 20.2382 6.01896 52430.7 2.72602e+06 861703 1.24152e+06 786373 763434 
174 1 48.4759 38.1489 20.4025 6.29191 -995105 -495231 -1.6173e+06 -113235 -308954 -166968 
101 1 36.9711 38.7869 18.5072 0 -350616 240233 102859 -354627 268220 -328059 
159 1 39.6125 40.3676 20.1558 7.70404 -921494 -157387 -1.46279e+06 -1.02582e+06 -890364 188568 
161 1 41.9249 40.4176 20.2992 6.47126 -1.30175e+06 -395161 -1.18448e+06 548970 -460897 -226802 
165 1 44.5951 40.4474 20.2693 5.88271 280734 389330 -218242 68026.9 49060.4 -192067 
169 1 47.1955 40.4122 20.1476 6.27095 204789 550483 203774 -648787 -189333 -151459 
173 1 49.7125 40.4317 20.444 6.08927 140799 -551336 247460 -356832 199091 115614 
180 1 37.9966 42.4239 20.1656 10.4137 1.01438e+06 1.12286e+06 23928.8 -987094 516935 -554378 
184 1 40.6388 42.515 20.2425 5.73207 802412 -1.0028e+06 -446145 -109576 -234649 -68087.4 
188 1 43.274 42.6301 20.3776 6.17473 189314 107422 -1.01362e+06 -57761.6 353269 -51305.2 
186 1 44.4277 43.4839 18.3703 4.45524 294460 -315323 -466474 -649946 1.14569e+06 788135 
192 1 45.9074 42.7305 20.3176 6.13333 -849668 -34800.3 123661 -470017 -130793 262967 
196 1 48.2611 42.6091 20.241 5.33154 -1.23839e+06 -456053 -150157 31810 29089.9 -19132.4 
176 1 36.5865 44.6655 20.1431 11.301 515688 562400 1.39527e+06 -203709 -131924 352519 
199 1 35.4394 45.4134 18.0315 9.23604 -657868 3.25738e+06 -22272.1 78186 940242 1.77233e+06 
203 1 37.9933 45.4407 18.1295 6.08528 -526880 54847.6 -258274 -58500 -723187 85430.9 
207 1 40.6251 45.5748 18.251 6.20643 -546965 53743.2 468122 216822 -384245 -417806 
179 1 39.1663 44.6787 20.3948 4.79975 1.30726e+06 465081 1.24056e+06 443284 488212 336427 
183 1 41.9016 44.7615 20.4118 5.97942 1.88912e+06 -141148 -1.51879e+06 224588 68908.7 -221581 
187 1 44.6255 44.8556 20.3747 5.52517 1.55998e+06 349318 -2.43766e+06 -826186 517672 -876761 
191 1 47.0475 44.8623 20.2528 5.69766 -963928 -485012 -472141 -830551 -495807 4016.87 
195 1 49.599 44.8348 20.3718 5.79666 -876625 -634077 -743077 128005 -219335 -290031 
202 1 35.3878 46.7993 20.2611 9.97358 415239 -341716 1.38197e+06 -277721 477391 139263 
206 1 37.9033 46.8748 20.3118 5.26282 795911 149651 972320 845280 822508 523551 
200 1 36.6829 47.6497 18.1804 5.68935 -475273 647811 -578682 222044 -454290 -150103 
210 1 40.5364 46.8897 20.4111 5.01968 327628 141114 -312889 -52382.7 131367 -78748.4 
214 1 43.0672 47.0313 20.3927 5.13805 -95103.2 445673 -3.03468e+06 -773221 -331131 361364 
208 1 41.9226 47.5182 18.393 5.10468 -410255 1.48904e+06 -2.04769e+06 35094.5 188582 -120388 
218 1 45.621 47.1216 20.4377 5.15226 44174.7 -467968 -1.36286e+06 169991 128369 21080.5 
222 1 48.3165 46.9518 20.4022 5.81333 386170 -166098 -848806 -406379 -1.0506e+06 -780908 
197 1 34.2513 47.8391 18.2423 0 -719074 502308 -474416 -633012 -9665.13 48782.9 
198 1 34.3669 49.1654 20.4586 15.4099 34621.5 386148 254763 67439.5 -152695 -31153.3 
201 1 36.8286 49.0472 20.3991 6.17292 -477052 -1.25992e+06 507647 -45464.6 -348702 -721032 
372 1 49.6949 47.6301 26.461 6.02838 -128968 -521237 -1.64286e+06 -377644 -162119 417955 
204 1 39.3123 47.7319 18.2652 5.83659 267620 -464981 197179 75057.5 -245638 -419375 
205 1 39.3216 49.1413 20.27 6.10428 -371952 544439 -692704 363612 161421 -139894 
209 1 41.9044 49.1372 20.3426 6.62936 147776 -303609 56495.3 453863 -276416 -292578 
213 1 44.4661 49.1859 20.3421 5.52267 -554118 -931232 -903643 -431722 180773 -132168 
217 1 47.0371 49.346 20.3542 5.38567 -1.47407e+06 4542.66 -1.29862e+06 -529055 279498 -502488 
221 1 49.455 49.3182 20.3056 6.22542 -605417 -659485 681442 759641 -179811 -307589 
230 1 48.2864 34.2885 22.917 0 969360 226565 191310 41102.2 193247 310225 
239 1 43.4695 36.6333 22.3008 0 709952 1.1043e+06 1.00561e+06 -274032 -162762 236891 
155 1 47.1909 35.0235 20.7777 10.07 -1.02955e+06 344482 397698 222395 49972.1 63684.5 
243 1 46.0499 36.5627 22.45 6.95007 193985 -31310 135854 210121 -122761 72580 
247 1 48.4846 36.6918 22.2151 9.52497 579890 -405835 462731 110513 -115116 342226 
234 1 39.6875 38.9433 22.3134 0 -1.33769e+06 -880472 2.62437e+06 961607 1.13698e+06 1.41207e+06 
236 1 42.2837 38.9396 22.3006 5.2284 -734471 -128369 738303 402022 -1.21744e+06 -374196 
240 1 44.7248 38.8911 22.3307 4.93091 -862178 490347 1.30237e+06 879413 -464040 181173 
244 1 47.165 38.9355 22.3127 5.87697 -664161 134080 13543.4 191076 409124 -80709.6 
248 1 49.6661 38.9974 22.4151 5.67824 -316820 121168 -919619 -300054 240561 -68626.1 
253 1 38.3946 41.1124 22.2471 13.1687 196504 743360 881698 -511601 -207613 267215 
257 1 40.9051 41.0289 22.2929 5.09154 71739.1 -421398 -203971 219500 460794 46950.9 
261 1 43.4576 41.125 22.3408 5.04858 -361392 -1.26383e+06 -483803 -139534 -329505 -318974 
265 1 45.9615 41.187 22.2844 6.1615 -1.45662e+06 -400490 500356 -245574 -144213 -139500 
269 1 48.2724 41.2829 22.352 5.18949 -306422 -1.10876e+06 89658.5 -437249 235934 -362935 
251 1 37.102 43.4512 22.3527 0 -249142 5629.08 874399 -388949 216848 -161942 
254 1 39.5844 43.2802 22.4141 4.75607 -774475 -153027 261707 -615817 -137008 137092 
258 1 42.0228 43.3131 22.3813 5.92437 -1.36564e+06 -664367 -504771 670869 63643.3 311724 
262 1 44.4743 43.2947 22.4355 6.05775 -721139 -993707 -602227 -409379 -218793 12303.5 
266 1 47.0663 43.3757 22.4667 6.14703 -410033 -712463 -407424 -139844 -66168.9 -321090 
270 1 49.636 43.2246 22.3678 5.58039 20789.2 -240493 -141137 -555078 259899 -126904 
275 1 35.8756 45.4781 22.4962 16.2764 -729892 -1.26721e+06 75000.3 20910.7 91060.8 -405679 
279 1 38.2569 45.5881 22.4686 4.50451 -1.21323e+06 -691043 -354963 -347319 -323340 -67814.5 
283 1 40.7606 45.3888 22.4791 5.71894 -502497 -579008 534933 260478 389464 728050 
287 1 43.3263 45.563 22.269 5.93859 -1.70573e+06 -1.86822e+06 -1.53382e+06 109159 -562355 -649665 
295 1 48.2725 45.633 22.3958 5.75203 65489.7 -138148 -1.10945e+06 -92014.9 -58295.7 365268 
273 1 34.2859 47.5959 22.4275 0 577258 1.41502e+06 74969.2 515148 -147887 118058 
276 1 36.846 47.6699 22.481 5.61979 234989 -712218 -102029 -69973.7 370703 529880 
284 1 41.8813 47.6476 22.5246 6.1195 -1.17606e+06 -278413 -994709 372672 -123226 -37082.5 
291 1 45.7269 45.6208 22.488 5.87309 -1.16984e+06 -1.18607e+06 -1.01012e+06 -509733 -687857 -68647.2 
292 1 46.9468 47.6642 22.4689 6.27349 -642440 -453276 205944 -10886.6 138137 -276411 
296 1 49.5648 47.7602 22.4386 5.57953 -227112 -251270 -479238 125081 -153714 -275262 
20 1 49.9651 35.768 14.2721 9.97969 356665 -772432 -194973 29517.7 266685 -163724 
88 1 41.8576 38.7802 13.5367 10.0378 564037 1.82824e+06 418479 -185817 136429 1.10296e+06 
368 1 47.003 47.6002 26.5712 5.78614 632952 83791.9 11213.1 -300961 330861 245037 
280 1 39.4505 47.7279 22.5131 5.46224 -37324.5 -145199 1.02982e+06 -299135 906150 496683 
288 1 44.3717 47.6971 22.4244 5.75997 -1.53084e+06 -1.32966e+06 -1.29257e+06 -345063 63465 133258 
229 1 44.5345 35.9548 24.487 0 664047 -144658 906521 246708 -51109.9 135544 
231 1 47.1223 35.7907 24.4518 10.7714 1.00902e+06 1.42047e+06 565716 -413432 -585653 -132190 
233 1 49.7467 35.9384 24.4431 7.57885 -626661 161991 -252669 152124 364490 -214769 
238 1 40.5951 38.4031 24.4736 0 783875 57021.3 1.18931e+06 234794 -1.60975e+06 -369012 
242 1 43.2315 37.9862 24.4461 8.13166 646715 427556 932450 667830 -698645 -375633 
246 1 45.7538 38.1743 24.3625 5.34319 65370.7 735482 -346502 -492674 -196989 -363554 
250 1 48.3772 38.013 24.422 5.54252 381407 857241 323105 1.07003e+06 512357 277728 
235 1 38.6258 39.8993 24.3744 0 165224 791083 964045 -380326 33243.1 76530 
237 1 42.1039 40.3553 24.5538 7.50746 260793 -381152 770886 -650201 -200999 -106458 
241 1 44.6177 40.3573 24.4885 6.31019 88904.2 178213 496751 24995.3 -620695 50215.2 
245 1 47.2062 40.268 24.4985 5.64947 -180290 225023 249017 71514.7 218641 -22054.4 
249 1 49.6753 40.4398 24.5316 6.26138 -175267 1.06738e+06 -79204 346481 553644 -81253.1 
256 1 38.0517 42.4035 24.5767 10.9657 963711 417645 613396 -251769 51886.5 -96554.4 
260 1 40.7482 42.5139 24.5355 7.03988 551384 872217 572716 -350933 -183201 -4633.17 
264 1 43.2214 42.4879 24.425 5.71125 -459308 -155176 641821 -499428 -31135.8 -602720 
268 1 45.8 42.5567 24.4206 6.03259 148166 267672 -231651 -241766 -45398.6 282082 
272 1 48.3734 42.6558 24.4926 5.6329 58516.6 -76439.7 -958380 -231863 339136 -162001 
252 1 36.8782 44.5817 24.5951 9.27117 -421621 391108 -194158 16419.7 -597990 -6016.53 
255 1 39.1838 44.7232 24.5826 4.32908 279254 294788 750781 166792 460315 635591 
259 1 41.9153 44.8298 24.5051 5.59329 538480 -440533 831527 -8721.01 -1.11679e+06 -208452 
263 1 44.4746 44.8011 24.4935 6.07768 -444780 -311313 -237439 -249614 293683 -32334.6 
267 1 47.0137 44.8718 24.4806 5.64707 -533040 -638585 -966213 115853 -42132 -90176.9 
271 1 49.6464 44.6917 24.434 6.25815 250129 -538148 -261721 -421283 -10973.6 130605 
278 1 35.5427 46.7999 24.4552 9.96566 257677 -536438 495502 268727 -138156 505867 
282 1 38.0094 47.0436 24.5702 5.18061 -56926.2 -442352 -857422 250096 170427 -212842 
286 1 40.6569 46.9856 24.6596 6.55409 -397653 137120 549560 26740.6 115923 345592 
290 1 43.1233 46.8817 24.4291 5.25408 -696937 -937147 -507777 77213.5 180420 471071 
294 1 45.6807 46.9469 24.4584 5.78382 406433 -1.8835e+06 426284 -59332.4 -850311 791251 
298 1 48.344 46.9103 24.587 6.42776 -132402 237709 -982300 -302857 -252460 -273034 
274 1 34.6014 48.9819 24.4849 0 -2.19082e+06 -1.21903e+06 676405 235434 336458 211542 
277 1 36.8244 49.1197 24.4807 5.56776 -2.52712e+06 27309.1 894468 -174108 96559.4 35915.5 
281 1 39.2764 49.192 24.5498 5.76126 -541373 -166279 227430 -18186.8 23611.1 -422931 
285 1 41.8497 49.0836 24.5467 4.9249 386490 -929212 -675265 -193570 155255 -165619 
289 1 44.5686 49.1158 24.6221 5.65267 120327 -1.10297e+06 -696512 104705 -841966 682927 
293 1 46.947 49.2035 24.5081 6.40904 1.30797e+06 140021 -286373 -315229 316760 -171571 
297 1 49.7882 49.0664 24.6504 5.93596 1.13616e+06 -793593 -1.66636e+06 -97301.6 -254743 290031 
306 1 47.5027 34.4616 26.5744 0 326456 631633 -26655.6 -1.03211e+06 -77897.7 -39834.3 
379 1 45.6481 49.8532 26.5956 5.49145 486073 -486181 -1.75632e+06 -619069 8768.22 -226072 
315 1 43.3805 36.7494 26.7436 16.2554 -545770 -867811 174550 247991 -216757 -139990 
319 1 45.8392 36.6451 26.6555 8.68263 568594 825174 708626 -626711 -178160 192728 
323 1 48.505 36.6312 26.5092 5.94891 -282295 -999319 -287436 348986 55227.7 201097 
310 1 39.4264 38.8677 26.6506 0 271781 -249007 570237 -98682.6 193295 -424318 
312 1 42.0107 38.6621 26.5396 7.97716 538585 154143 782863 617365 117805 -178654 
316 1 44.6244 38.8659 26.5887 6.34517 96343.9 -889205 18630.7 -100497 169170 -272224 
320 1 47.1465 38.6882 26.4778 5.40126 -46254.3 138837 131455 218894 -317636 333496 
324 1 49.7407 38.9645 26.5792 6.17592 -328442 -36905.8 1.25534e+06 176683 1.00327e+06 -221132 
329 1 38.2709 41.0511 26.7315 0 -632786 -287531 -83700.2 247592 -293269 264121 
333 1 40.6554 40.9939 26.6298 7.22807 133126 623569 1.31763e+06 -12282.7 -307346 -160155 
337 1 43.2867 40.9899 26.7661 6.56025 -314995 574397 -5488.5 254114 -896662 -472428 
341 1 45.8473 41.0242 26.4418 6.91989 178083 290693 -394575 -465477 72766.5 -78948.9 
345 1 48.4621 41.0867 26.609 6.04643 279437 57989 7049.95 500159 152237 -104025 
327 1 37.0082 43.246 26.6473 0 -349617 -408792 -184902 -206040 117512 144485 
330 1 39.4362 43.3255 26.6291 5.45015 -915262 -1.12662e+06 -976554 -154102 92729.8 259634 
334 1 41.9588 43.312 26.5995 5.80433 16174.8 -404593 -309492 201513 -282184 -415549 
338 1 44.5111 43.2505 26.5965 6.5354 799533 267789 -2537.85 6562.99 -51070.7 -282907 
342 1 47.2226 43.2256 26.4871 5.94398 494471 -133750 -102652 129223 199627 -154400 
346 1 49.8131 43.3107 26.503 6.22594 59875.2 -838639 56345.8 -431808 98276.4 -25601.5 
351 1 35.7968 45.5178 26.6765 0 -527426 206731 -252620 -216888 131169 -358278 
355 1 38.2057 45.4165 26.6769 5.4724 -1.13076e+06 -1.06492e+06 -1.16527e+06 242664 167038 -116513 
359 1 40.7302 45.3738 26.7309 6.33286 -881902 -607678 -7811.43 247036 472276 707288 
363 1 43.2983 45.523 26.5989 5.68313 -628603 -220759 -833436 -129293 85038.2 85729.2 
367 1 45.8306 45.4651 26.5489 5.97627 -595055 1.15854e+06 -380920 -1.38447e+06 225505 16292.2 
371 1 48.3428 45.405 26.5636 5.51952 -342894 -138919 -142044 -156835 72358.2 191529 
349 1 34.3478 47.7255 26.7389 0 872928 409158 1.41573e+06 -267397 -434044 -16037.4 
352 1 36.9102 47.6445 26.5726 5.73509 -549489 -4053.92 1.12969e+06 585887 329379 741082 
356 1 39.3496 47.6837 26.6972 6.27216 -59156.1 -278490 92100.8 -150392 122709 -347668 
360 1 41.9586 47.7919 26.6712 5.28195 -83009.2 -104179 -159442 -111682 -392510 38699.8 
364 1 44.388 47.8609 26.664 5.11034 -116956 -1.03898e+06 524629 -1.33951e+06 -469891 1.67382e+06 
225 1 40.5524 49.9462 18.3022 3.27015 -564947 609135 -564139 -1.33679e+06 500571 213902 
147 1 33.1089 49.9169 17.3715 0 409817 1.3077e+06 406867 -186721 -28334.5 33717.6 
304 1 48.3984 49.9268 22.5214 5.81408 206532 -404003 30674.1 159747 186985 183283 
308 1 49.9242 34.6004 26.633 0 241042 -1.11681e+06 17149 -195867 114460 -300896 
377 1 40.5575 49.9113 26.6206 6.01259 -1.34309e+06 -32081.9 420556 -222382 178599 -14659.7 
380 1 48.2638 49.8397 26.6384 6.1007 756651 772664 265173 -66920.5 105546 556651 
303 1 45.6616 49.8268 22.3399 5.50417 -4571.8 730859 -130386 -590685 34102.3 552858 
376 1 38.1214 49.9189 26.7544 4.8715 -548639 -1.12456e+06 441603 568355 -535808 -571980 
69 1 49.8957 49.2844 14.1705 9.92183 -1.61285e+06 -1.35197e+06 -373091 498790 -1.62168e+06 -350895 
228 1 48.0904 49.9575 18.2449 0.968547 11506.2 -457679 -1.88976e+06 -11913.3 493716 782794 
300 1 38.0217 49.9837 22.2967 5.7868 216910 435147 54939.7 -77275.1 -91772.3 35006.7 
302 1 43.178 49.9461 22.4257 6.32911 -442745 -672256 -44680.1 23405.2 88532.4 99962 
305 1 44.66 35.78 28.6586 0 630056 799655 -188882 -337254 139288 62970.8 
307 1 47.2032 35.7978 28.6012 9.48165 1.00081e+06 804651 420276 128766 -163665 58752.1 
309 1 49.8342 35.87 28.6108 9.08514 1.0705e+06 439932 -426387 234822 232020 -383375 