5538
Atoms. Timestep: 0
1 43.8171 33.9155 7.46084
1 47.0108 32.2941 5.27802
1 46.7568 33.9076 7.51275
1 48.2595 31.5245 7.55566
1 49.6874 33.9743 7.4047
1 36.5556 36.7473 7.56547
1 38.0748 39.0059 7.28804
1 40.9709 37.3346 5.15295
1 40.9167 38.9184 7.37319
1 39.4201 36.4265 7.36944
1 40.9491 34.0786 7.55711
1 43.8526 37.1253 5.01237
1 43.826 38.8699 7.28676
1 42.3663 36.3943 7.34795
1 45.4466 34.6363 5.19511
1 46.7423 37.1899 5.0098
1 46.7451 38.9249 7.24037
1 45.3216 36.4277 7.37849
1 48.2998 34.7125 5.10554
1 49.6826 37.1838 4.98382
1 49.6395 38.9766 7.22814
1 48.2164 36.4596 7.33438
1 33.7757 41.5263 7.47003
1 35.2426 43.914 7.2357
1 35.243 39.1274 7.34684
1 38.176 42.2668 4.99973
1 38.1211 43.9511 7.26527
1 36.6811 41.4666 7.31572
1 39.5851 39.832 4.98008
1 41.0144 42.2816 4.93959
1 41.0073 43.9619 7.21468
1 39.5663 41.4518 7.34949
1 42.4476 39.7047 5.02099
1 43.8036 42.2276 4.89516
1 43.889 43.9176 7.17251
1 42.4661 41.4274 7.26195
1 45.3136 39.7226 4.90591
1 46.7443 42.1997 4.80975
1 46.7631 43.9326 7.12445
1 45.2956 41.3954 7.17519
1 48.1844 39.716 4.88028
1 49.6307 42.2154 4.80609
1 49.6829 43.9616 7.11653
1 48.2162 41.4818 7.1134
1 31.0412 46.3001 7.5142
1 32.2595 48.8605 7.25235
1 32.4497 43.9623 7.381
1 35.1367 47.2392 4.93911
1 35.2004 48.8739 7.26948
1 33.7864 46.4049 7.28643
1 36.6836 44.8838 4.94683
1 38.0453 47.3498 4.80957
1 38.0251 48.942 7.21334
1 36.6956 46.3888 7.2293
1 39.5259 44.8147 4.87963
1 40.9591 47.3873 4.82562
1 40.973 48.9843 7.20573
1 39.5723 46.4871 7.13509
1 42.4237 44.823 4.88885
1 43.9051 47.2915 4.81933
1 43.9383 48.9828 7.15695
1 42.4697 46.463 7.15558
1 45.3287 44.7671 4.81426
1 46.8155 47.2853 4.78821
1 46.7926 48.9945 7.15425
1 45.3556 46.4875 7.07952
1 48.2074 44.7527 4.82879
1 49.7152 47.2868 4.76359
1 49.6529 48.9543 7.12094
1 48.2471 46.4826 7.11828
1 33.6376 49.9145 5.01005
1 36.5637 49.7691 4.88044
1 39.5118 49.8325 4.91229
1 42.4711 49.8305 4.86779
1 45.4014 49.7861 4.83599
1 48.2583 49.7806 4.82148
1 43.8552 33.9334 12.1112
1 46.8733 32.3003 9.78168
1 46.8773 33.8688 12.0935
1 49.753 32.332 9.80271
1 49.7656 33.9852 12.066
1 38.087 37.3144 9.73671
1 38.1815 38.9121 12.1003
1 40.9339 37.1604 9.70266
1 41.0329 38.8664 12.0193
1 39.6368 36.4118 12.0661
1 42.4187 34.7425 9.76671
1 43.8134 37.2166 9.70964
1 43.9115 38.9118 11.981
1 42.4433 36.3863 12.0847
1 45.3038 34.7446 9.77067
1 46.7763 37.2283 9.66903
1 46.7882 38.9215 11.9613
1 45.3425 36.3499 12.0617
1 48.2719 34.7732 9.73762
1 49.6765 37.233 9.61827
1 49.6943 38.9787 11.8907
1 48.2373 36.4882 12.0433
1 35.2573 42.2507 9.68286
1 35.3185 43.9481 11.9927
1 36.6086 39.7522 9.665
1 38.1129 42.2358 9.70131
1 38.1585 43.9365 12.0198
1 36.7553 41.4334 12.0564
1 39.5191 39.7337 9.67831
1 41.067 42.246 9.64472
1 41.0624 43.9261 11.9067
1 39.6463 41.3915 11.9954
1 42.4184 39.6987 9.65552
1 43.9355 42.2356 9.5551
1 43.8972 43.9575 11.901
1 42.5191 41.398 11.9605
1 45.3331 39.7457 9.60362
1 46.7942 42.2944 9.5261
1 46.7981 44.0062 11.8849
1 45.3693 41.4329 11.9378
1 48.1931 39.7602 9.5796
1 49.6556 42.2886 9.49498
1 49.7137 43.9894 11.8551
1 48.2408 41.4789 11.9
1 32.3983 47.2981 9.64007
1 32.3612 48.9328 11.9451
1 33.8543 44.7855 9.64421
1 35.2344 47.2483 9.58232
1 35.2222 48.9442 11.9202
1 33.831 46.4198 11.9812
1 36.722 44.7664 9.64015
1 38.1337 47.2845 9.58975
1 38.116 48.9827 11.87
1 36.6883 46.4583 11.9461
1 39.5961 44.7948 9.56803
1 41.0093 47.2864 9.5318
1 40.994 48.9809 11.8639
1 39.5912 46.4894 11.8866
1 42.4819 44.768 9.51778
1 43.8986 47.3043 9.51749
1 43.8616 48.9789 11.8528
1 42.4628 46.4319 11.8669
1 45.3375 44.8145 9.50458
1 46.7977 47.3548 9.46938
1 46.8283 49.0213 11.8194
1 45.3741 46.4877 11.8347
1 48.2046 44.8175 9.50083
1 49.6977 47.2716 9.46318
1 49.6994 48.9664 11.7936
1 48.2341 46.494 11.8397
1 33.7174 49.796 9.55388
1 36.629 49.8066 9.52785
1 39.5178 49.8117 9.53737
1 42.4091 49.8238 9.51084
1 45.3387 49.8564 9.46345
1 48.2552 49.8599 9.49392
1 44.0256 34.0308 16.7932
1 46.9913 32.372 14.4518
1 46.8689 33.9397 16.7287
1 49.7401 32.3981 14.3409
1 49.6976 33.9824 16.7028
1 38.2307 37.3422 14.432
1 38.2454 39.0242 16.7495
1 41.0519 37.2954 14.4082
1 41.1258 39.0314 16.7254
1 39.669 36.5799 16.7704
1 42.485 34.7587 14.4036
1 43.9198 37.2236 14.3682
1 43.9687 38.9566 16.6784
1 42.5192 36.4463 16.7055
1 45.345 34.7411 14.4069
1 46.7979 37.2789 14.3473
1 46.7876 39.0022 16.6482
1 45.3699 36.4724 16.7459
1 48.2444 34.839 14.4082
1 49.6624 37.3236 14.338
1 49.6834 39.0442 16.6554
1 48.2361 36.5092 16.6936
1 35.4678 42.3836 14.3603
1 35.3425 44.0165 16.6798
1 36.792 39.8526 14.4793
1 38.2421 42.301 14.3651
1 38.2081 44.0603 16.6451
1 36.8218 41.5698 16.7717
1 39.6781 39.791 14.366
1 41.1052 42.3158 14.3053
1 41.0903 44.0157 16.6202
1 39.6744 41.5157 16.682
1 42.5427 39.7994 14.318
1 43.9504 42.3183 14.2972
1 43.9311 44.0161 16.6016
1 42.5598 41.4815 16.6738
1 45.3709 39.7668 14.2946
1 46.8144 42.327 14.2108
1 46.7897 44.0272 16.5472
1 45.3737 41.4945 16.6393
1 48.236 39.8085 14.2566
1 49.6538 42.3251 14.2671
1 49.6534 44.0085 16.5807
1 48.2374 41.507 16.6069
1 32.4519 47.3253 14.3162
1 32.4518 48.9622 16.6482
1 33.872 44.8323 14.35
1 35.2577 47.3154 14.3271
1 35.2654 49.0174 16.5907
1 33.8694 46.5209 16.6789
1 36.7741 44.8842 14.2856
1 38.177 47.3659 14.2914
1 38.0897 49.0416 16.6158
1 36.7368 46.5501 16.6724
1 39.654 44.8829 14.2763
1 41.0347 47.3602 14.2058
1 41.0462 49.0119 16.5594
1 39.5862 46.536 16.6327
1 42.5019 44.8265 14.2605
1 43.9549 47.3297 14.2028
1 43.9134 49.0142 16.5408
1 42.4681 46.5433 16.5729
1 45.3462 44.8138 14.1938
1 46.8398 47.3227 14.167
1 46.7673 49.0435 16.5399
1 45.3816 46.5114 16.5126
1 48.2729 44.8405 14.1747
1 49.7073 47.3705 14.1976
1 49.6175 49.0088 16.5447
1 48.2551 46.552 16.5873
1 33.7937 49.8225 14.2361
1 36.6693 49.8359 14.2332
1 39.5962 49.8452 14.2365
1 42.4954 49.8361 14.199
1 45.3942 49.8305 14.1858
1 48.2819 49.868 14.162
1 44.0013 34.0215 21.4383
1 46.8557 32.4685 19.1243
1 46.8777 34.0607 21.3867
1 49.5994 32.4 19.0073
1 49.7371 33.9761 21.3799
1 38.2892 37.4465 19.1116
1 38.2489 39.0345 21.4299
1 41.1346 37.4055 19.0741
1 41.1165 39.0827 21.4384
1 39.7108 36.5967 21.4009
1 42.5979 34.8936 19.0932
1 43.9554 37.3883 19.0469
1 44.0144 39.0679 21.4135
1 42.5506 36.5715 21.3753
1 45.4054 34.8879 19.1015
1 46.8236 37.4272 19.0308
1 46.8411 39.0797 21.3769
1 45.4302 36.558 21.3766
1 48.2779 34.9175 19.066
1 49.6679 37.4098 19.0137
1 49.6999 39.0921 21.3864
1 48.2776 36.5636 21.4175
1 35.3953 42.3782 19.1126
1 35.3451 44.0817 21.3992
1 36.865 39.937 19.1007
1 38.2497 42.4521 19.0748
1 38.2078 44.0905 21.4066
1 36.8507 41.5833 21.4341
1 39.7089 39.9253 19.0733
1 41.1335 42.4177 19.0128
1 41.0824 44.136 21.2866
1 39.6868 41.5889 21.3966
1 42.5422 39.8898 19.0528
1 43.952 42.4412 18.9442
1 43.9495 44.0985 21.3227
1 42.5515 41.5992 21.3765
1 45.3747 39.9173 19.0101
1 46.8508 42.4077 18.979
1 46.8155 44.0631 21.3607
1 45.4143 41.6476 21.3632
1 48.2693 39.8942 19.0194
1 49.6765 42.3971 18.974
1 49.6467 44.0909 21.3427
1 48.2641 41.5646 21.3994
1 32.4292 47.2951 19.0222
1 32.4482 48.9259 21.3565
1 33.9137 44.8659 19.0095
1 35.2791 47.3485 19.0272
1 35.2599 49.0175 21.3448
1 33.7999 46.4844 21.4129
1 36.7843 44.8831 19.01
1 38.1843 47.3852 19.0227
1 38.1771 49.0618 21.3698
1 36.7363 46.5675 21.3712
1 39.7124 44.9245 19.0159
1 41.0764 47.3955 18.9782
1 41.0739 49.0947 21.3021
1 39.6446 46.608 21.3533
1 42.562 44.9254 18.9331
1 43.9988 47.4073 18.9177
1 43.9378 49.1037 21.3364
1 42.5166 46.599 21.3138
1 45.4091 44.938 18.9332
1 46.8335 47.4616 18.918
1 46.7975 49.1009 21.3189
1 45.3628 46.5771 21.3165
1 48.2426 44.9104 18.9512
1 49.6939 47.4266 18.9286
1 49.6693 49.1152 21.295
1 48.2223 46.648 21.2977
1 33.796 49.8285 18.9826
1 36.7088 49.8239 18.9729
1 39.6193 49.8549 18.961
1 42.5239 49.8682 18.9336
1 45.37 49.9291 18.8848
1 48.2521 49.8825 18.9134
1 43.9037 34.0653 26.0155
1 47.0575 32.5068 23.6837
1 46.8063 34.0211 26.0307
1 49.901 32.4552 23.782
1 49.636 34.0465 26.0858
1 38.3632 37.3403 23.7793
1 38.2701 39.042 26.0889
1 41.1061 37.4293 23.7428
1 41.1187 39.0176 26.0878
1 39.7235 36.5704 26.105
1 42.6007 34.9373 23.679
1 43.9825 37.3529 23.7266
1 43.9638 39.0014 26.1039
1 42.5376 36.493 26.0474
1 45.4386 34.8526 23.7282
1 46.7885 37.3827 23.7319
1 46.7909 39.026 26.0954
1 45.379 36.5167 26.051
1 48.3452 34.9105 23.7373
1 49.724 37.4243 23.7734
1 49.6586 39.0534 26.1524
1 48.2142 36.559 26.0858
1 35.411 42.463 23.7689
1 35.2949 44.1027 26.0803
1 36.8756 39.8846 23.7841
1 38.2132 42.419 23.7672
1 38.2015 44.107 26.0837
1 36.8125 41.5943 26.0633
1 39.6738 39.9165 23.7428
1 41.1155 42.4443 23.6904
1 41.0544 44.0756 26.0251
1 39.6511 41.6013 26.093
1 42.6029 39.9192 23.7567
1 43.9838 42.4263 23.7257
1 43.902 44.0429 26.0632
1 42.4908 41.5366 26.0612
1 45.436 39.9189 23.7553
1 46.8112 42.4498 23.7775
1 46.7754 44.0776 26.0619
1 45.2918 41.5356 26.1109
1 48.2719 39.9064 23.779
1 49.6876 42.4392 23.7746
1 49.6452 44.0829 26.0955
1 48.1835 41.5426 26.1305
1 32.4073 47.3654 23.7301
1 32.3592 49.0583 26.0869
1 33.9012 44.8945 23.7218
1 35.2428 47.3294 23.7388
1 35.205 49.0525 25.9805
1 33.7908 46.5636 26.0541
1 36.7521 44.9067 23.7168
1 38.1524 47.4152 23.6946
1 38.0852 49.0905 26.0749
1 36.7235 46.634 26.0691
1 39.6471 44.9427 23.7291
1 41.0768 47.4092 23.6785
1 40.9655 49.1184 26.0752
1 39.5793 46.6269 26.055
1 42.5548 44.9439 23.7003
1 43.9458 47.4286 23.7057
1 43.8557 49.0951 26.0736
1 42.4525 46.5627 26.0859
1 45.4053 44.9512 23.711
1 46.8029 47.4307 23.7007
1 46.7285 49.1252 26.1054
1 45.3479 46.5913 26.056
1 48.2432 44.9716 23.6891
1 49.6798 47.4483 23.6809
1 49.6685 49.127 26.0797
1 48.1856 46.581 26.0939
1 33.764 49.8573 23.6769
1 36.6983 49.8801 23.7003
1 39.6001 49.8592 23.6828
1 42.462 49.9321 23.7205
1 45.329 49.9296 23.7053
1 48.2565 49.9521 23.6745
1 49.7573 32.4458 28.417
1 52.528 32.4004 28.4414
1 38.2951 37.4352 28.4001
1 41.0917 37.3679 28.4148
1 42.4791 34.8144 28.4161
1 43.8592 37.3498 28.4271
1 45.3189 34.836 28.386
1 46.7337 37.3445 28.4541
1 48.1468 34.7897 28.4139
1 49.6089 37.3369 28.4392
1 35.4175 42.4666 28.4211
1 36.8028 39.9717 28.3525
1 38.2377 42.5243 28.4716
1 39.6353 39.9435 28.4429
1 41.041 42.4819 28.4217
1 42.4323 39.9165 28.4409
1 43.8779 42.4114 28.4486
1 45.2762 39.9176 28.4968
1 46.6918 42.4001 28.4403
1 48.1342 39.8953 28.4646
1 49.6044 42.3883 28.4672
1 32.4104 47.5 28.4086
1 33.8521 44.9523 28.4136
1 35.2069 47.4587 28.3925
1 36.6893 45.018 28.4291
1 38.163 47.5244 28.3985
1 39.5758 45.0188 28.4342
1 41.0065 47.506 28.4485
1 42.4749 44.9813 28.4407
1 43.8397 47.468 28.4105
1 45.3116 44.9356 28.384
1 46.6931 47.4559 28.4272
1 48.1325 44.9385 28.4347
1 49.6042 47.4508 28.4532
1 33.752 49.9532 28.3753
1 36.6197 49.975 28.4135
1 39.5149 50.0227 28.4225
1 42.3854 50.0107 28.4633
1 45.248 49.9326 28.4158
1 48.1852 49.9455 28.4281
1 43.9108 34.0091 30.7648
1 46.734 34.0235 30.7979
1 49.6215 33.9404 30.8246
1 38.1007 39.0893 30.7154
1 40.9633 39.0344 30.7635
1 39.5946 36.5453 30.7674
1 43.8033 38.9792 30.7975
1 42.4251 36.4043 30.7714
1 46.7181 39.033 30.7656
1 45.2356 36.4713 30.7785
1 49.6124 39.0348 30.783
1 48.1744 36.4716 30.7792
1 35.1722 44.0901 30.7352
1 38.071 44.1435 30.805
1 36.6503 41.5881 30.7756
1 40.9326 44.1167 30.7266
1 39.5184 41.5873 30.7812
1 43.8423 44.1128 30.7486
1 42.4428 41.5217 30.8085
1 46.7171 44.0716 30.7514
1 45.2552 41.545 30.7933
1 49.5943 44.0867 30.8156
1 48.1583 41.516 30.8224
1 32.3313 49.0999 30.7761
1 35.0925 49.1416 30.7688
1 33.7194 46.6052 30.7611
1 37.9649 49.1092 30.8135
1 36.5629 46.612 30.7815
1 40.9043 49.1825 30.7617
1 39.4212 46.6736 30.7787
1 43.7432 49.1276 30.7592
1 42.2993 46.641 30.7926
1 46.6886 49.1497 30.7772
1 45.2673 46.5839 30.732
1 49.5738 49.1722 30.781
1 48.1428 46.6337 30.7735
1 43.8765 34.0559 35.5224
1 46.8109 32.513 33.2187
1 46.7759 34.041 35.5356
1 49.5781 32.4519 33.2347
1 49.5858 33.9955 35.5767
1 38.0963 37.413 33.0395
1 38.0695 38.9973 35.4389
1 40.9917 37.3596 33.0845
1 40.9565 39.0107 35.4464
1 39.5421 36.5193 35.3611
1 42.5444 34.8319 33.1622
1 43.8047 37.3649 33.1403
1 43.8208 39.057 35.5058
1 42.4045 36.5123 35.4728
1 45.3178 34.8514 33.1596
1 46.711 37.4206 33.0981
1 46.756 39.1108 35.4575
1 45.3168 36.5847 35.4761
1 48.1813 34.915 33.16
1 49.6216 37.4042 33.1619
1 49.6188 39.1128 35.4774
1 48.1951 36.6148 35.4946
1 35.2281 42.4561 33.1084
1 35.1482 44.1515 35.4544
1 36.6704 39.9291 33.0799
1 38.0586 42.4314 33.1081
1 37.9812 44.0862 35.4387
1 36.605 41.5551 35.4119
1 39.5059 39.8866 33.1194
1 40.9465 42.3812 33.1082
1 40.8972 44.0865 35.4284
1 39.4597 41.5497 35.4498
1 42.3485 39.8809 33.1283
1 43.8068 42.394 33.136
1 43.7402 44.1011 35.4212
1 42.3784 41.531 35.4395
1 45.2392 39.8832 33.1155
1 46.691 42.4473 33.1612
1 46.6145 44.0776 35.4829
1 45.2583 41.5975 35.4564
1 48.1557 39.9192 33.1066
1 49.5954 42.4094 33.1235
1 49.5623 44.0739 35.4764
1 48.1844 41.5982 35.427
1 32.3412 47.5662 33.1008
1 32.1496 49.2116 35.4358
1 33.7752 44.9943 33.07
1 35.1233 47.5343 33.136
1 34.9749 49.2 35.4935
1 33.6327 46.5951 35.4136
1 36.5845 44.9832 33.1479
1 37.9613 47.5169 33.1477
1 37.868 49.1846 35.4836
1 36.5166 46.6516 35.4865
1 39.4871 44.9827 33.1283
1 40.8887 47.4952 33.1351
1 40.8213 49.1853 35.4874
1 39.458 46.6543 35.4793
1 42.335 44.9355 33.1014
1 43.8162 47.4874 33.0586
1 43.7642 49.1288 35.4239
1 42.3285 46.6268 35.415
1 45.2526 44.9346 33.0927
1 46.6558 47.4198 33.1205
1 46.6171 49.1473 35.4621
1 45.164 46.6178 35.3859
1 48.1643 44.9421 33.0998
1 49.5657 47.4976 33.1197
1 49.5004 49.1533 35.4835
1 48.0596 46.6394 35.4606
1 33.5963 50.125 33.1284
1 36.4785 50.0192 33.1516
1 39.3685 50.0201 33.1867
1 42.2843 50.0045 33.1141
1 45.2331 49.9694 33.1354
1 48.1158 49.997 33.0804
1 43.8735 34.0929 40.175
1 46.7395 32.5611 37.9647
1 46.7604 34.1143 40.254
1 49.4956 32.4742 37.9266
1 49.6235 34.0994 40.2211
1 38.1346 37.4058 37.7407
1 38.0661 39.0835 40.0969
1 40.9612 37.3495 37.7682
1 40.9718 39.0325 40.1258
1 39.4929 36.6304 40.0785
1 42.4632 34.9146 37.8342
1 43.8122 37.431 37.8119
1 43.8754 39.0754 40.1801
1 42.4092 36.5573 40.145
1 45.2986 34.9434 37.8386
1 46.708 37.4602 37.8144
1 46.7462 39.1001 40.1561
1 45.2929 36.5181 40.1508
1 48.1965 35.0012 37.8536
1 49.6029 37.4651 37.8435
1 49.6194 39.1358 40.1731
1 48.1714 36.5976 40.1945
1 35.1902 42.4875 37.7092
1 35.1304 44.083 40.0694
1 36.6691 39.9111 37.7777
1 38.0679 42.4259 37.7625
1 38.0365 44.1629 40.0845
1 36.5877 41.6119 40.0198
1 39.5196 39.8413 37.7902
1 40.9425 42.3934 37.7726
1 40.9261 44.0545 40.0659
1 39.4789 41.5509 40.1206
1 42.3751 39.8914 37.8015
1 43.8011 42.4096 37.7882
1 43.8083 44.0697 40.1125
1 42.3771 41.5672 40.133
1 45.2893 39.9427 37.8158
1 46.703 42.4394 37.7828
1 46.693 44.1204 40.1432
1 45.2689 41.5843 40.1512
1 48.1807 39.9433 37.8306
1 49.6062 42.4543 37.8211
1 49.5775 44.1499 40.1145
1 48.1352 41.6167 40.1556
1 32.2941 47.5508 37.7719
1 32.2319 49.1719 40.1437
1 33.719 44.9597 37.7636
1 35.1111 47.497 37.828
1 35.0138 49.1762 40.153
1 33.6148 46.5802 40.1357
1 36.5824 44.9891 37.807
1 37.9763 47.4421 37.8161
1 37.9382 49.1294 40.1716
1 36.5124 46.6682 40.1426
1 39.4953 44.9423 37.765
1 40.8711 47.4533 37.7912
1 40.8674 49.1228 40.1152
1 39.4509 46.6325 40.1269
1 42.3694 44.9596 37.7456
1 43.7232 47.4851 37.7846
1 43.7223 49.1185 40.1307
1 42.3417 46.5887 40.138
1 45.2217 44.9214 37.7721
1 46.6128 47.4716 37.7621
1 46.6425 49.0767 40.1414
1 45.2477 46.6264 40.086
1 48.1187 44.9651 37.7922
1 49.5371 47.485 37.7818
1 49.5034 49.1363 40.1428
1 48.1455 46.5993 40.1318
1 33.5406 50.0415 37.782
1 36.4839 50.0028 37.8424
1 39.3787 50.0117 37.8269
1 42.2576 49.9743 37.7922
1 45.1658 49.901 37.7929
1 48.0789 49.9989 37.7947
1 46.9205 32.6034 42.6351
1 49.7125 32.5914 42.6033
1 38.1426 37.4795 42.4395
1 40.9467 37.3878 42.4766
1 42.4462 34.9422 42.4536
1 43.8496 37.4351 42.4968
1 45.3015 34.9128 42.5017
1 46.7558 37.4632 42.5076
1 48.1884 35.0435 42.5932
1 49.5517 37.5433 42.5288
1 35.2532 42.5431 42.4518
1 36.7055 39.9767 42.4073
1 38.0749 42.4347 42.3841
1 39.5655 39.8958 42.437
1 40.9604 42.4053 42.4759
1 42.3879 39.9434 42.4726
1 43.8663 42.3821 42.5181
1 45.3126 39.8997 42.5199
1 46.7079 42.4308 42.5175
1 48.1665 40.008 42.5064
1 49.5896 42.5163 42.5374
1 32.3559 47.634 42.472
1 33.8196 45.0556 42.5035
1 35.1403 47.4918 42.5282
1 36.6663 44.985 42.4396
1 38.0354 47.4511 42.4729
1 39.5201 44.9106 42.4148
1 40.9159 47.4132 42.5168
1 42.3593 44.8881 42.4368
1 43.8118 47.4487 42.475
1 45.2366 44.9565 42.477
1 46.6671 47.4574 42.4855
1 48.109 44.9555 42.4833
1 49.5168 47.4674 42.4931
1 33.7083 50.0426 42.4925
1 36.5775 49.9573 42.5084
1 39.4699 49.952 42.5041
1 42.3271 49.9316 42.5186
1 45.2169 49.9394 42.4931
1 48.0631 50.0208 42.5286
1 43.8489 34.1543 44.8086
1 46.675 34.1498 44.8989
1 49.5527 34.1696 44.9113
1 38.0458 39.1268 44.7743
1 40.9556 39.0905 44.8223
1 39.4686 36.6721 44.837
1 43.7976 39.091 44.8765
1 42.3895 36.5703 44.8321
1 46.7106 39.1001 44.8578
1 45.2701 36.6117 44.8746
1 49.5686 39.2163 44.8382
1 48.126 36.6331 44.8815
1 35.1992 44.1697 44.8004
1 38.0482 44.1092 44.8266
1 36.6366 41.6328 44.7488
1 40.8921 44.1109 44.8264
1 39.5311 41.6009 44.7915
1 43.7891 44.0854 44.8899
1 42.4241 41.6245 44.8594
1 46.6867 44.1446 44.8214
1 45.2517 41.5758 44.8944
1 49.5704 44.1462 44.8749
1 48.1054 41.6682 44.8934
1 32.3306 49.2426 44.8781
1 35.1453 49.1693 44.8582
1 33.6761 46.7017 44.8692
1 38.0577 49.098 44.8593
1 36.5929 46.6641 44.8455
1 40.8907 49.046 44.8635
1 39.4817 46.5636 44.8173
1 43.7713 49.0757 44.8829
1 42.4165 46.5633 44.8754
1 46.6424 49.0714 44.8714
1 45.2719 46.5621 44.8316
1 49.511 49.1237 44.867
1 48.1338 46.6004 44.8893
1 43.8068 34.1944 49.5242
1 46.5654 32.579 47.2326
1 46.6629 34.1353 49.5428
1 49.3437 32.5223 47.2362
1 49.4749 34.1347 49.5772
1 38.0869 37.494 47.1231
1 38.0313 39.1846 49.5104
1 40.896 37.4476 47.2113
1 40.9082 39.1176 49.6005
1 39.393 36.7384 49.543
1 42.2992 34.9889 47.1908
1 43.7516 37.4208 47.2335
1 43.7758 39.1223 49.5917
1 42.34 36.5973 49.5785
1 45.1439 34.9643 47.1843
1 46.6729 37.4882 47.2533
1 46.666 39.1993 49.5892
1 45.2545 36.6733 49.5968
1 48.0479 35.0293 47.2345
1 49.496 37.5508 47.2428
1 49.4936 39.2301 49.6099
1 48.0924 36.6659 49.6151
1 35.2447 42.5346 47.1278
1 35.2 44.1574 49.5121
1 36.6853 40.0515 47.1206
1 38.0523 42.4911 47.1908
1 38.0184 44.1024 49.5608
1 36.613 41.6224 49.4928
1 39.4834 39.9479 47.1471
1 40.9456 42.4291 47.1865
1 40.8932 44.1279 49.6157
1 39.4637 41.5897 49.5469
1 42.3519 39.9568 47.2425
1 43.8309 42.4453 47.2792
1 43.772 44.1217 49.6336
1 42.3179 41.611 49.6158
1 45.2114 39.9327 47.2266
1 46.6207 42.4718 47.2657
1 46.6185 44.1571 49.6171
1 45.2388 41.6393 49.6634
1 48.0693 40.0423 47.2452
1 49.4731 42.4974 47.2415
1 49.5312 44.1736 49.6733
1 48.1306 41.6991 49.5814
1 32.4168 47.5915 47.2461
1 32.3494 49.1745 49.5793
1 33.811 45.0991 47.1391
1 35.1755 47.5118 47.2341
1 35.1674 49.1498 49.5826
1 33.7386 46.6583 49.5491
1 36.6541 45.0316 47.1977
1 38.0958 47.5235 47.2105
1 38.0207 49.0998 49.5749
1 36.6187 46.6042 49.571
1 39.5312 44.9658 47.2079
1 40.939 47.4475 47.2284
1 40.9131 49.1098 49.6096
1 39.4793 46.588 49.6122
1 42.3659 44.8866 47.1985
1 43.7719 47.4572 47.2348
1 43.727 49.1483 49.6127
1 42.3456 46.5995 49.6026
1 45.227 44.9789 47.2544
1 46.6117 47.4781 47.2468
1 46.641 49.1418 49.6176
1 45.1697 46.6569 49.6049
1 48.0834 44.9775 47.2779
1 49.4801 47.4694 47.2382
1 49.4996 49.1206 49.6058
1 48.0196 46.6428 49.6472
1 33.7336 50.057 47.2522
1 36.6244 49.9592 47.1973
1 39.4852 49.9423 47.2626
1 42.339 49.9439 47.1952
1 45.1884 49.9442 47.2382
1 48.0714 49.9603 47.2572
1 43.7331 34.1582 54.2844
1 46.8548 32.5848 51.8051
1 46.5925 33.9897 54.2676
1 49.6257 32.5779 51.8603
1 49.4131 34.1051 54.2176
1 37.9625 37.515 51.9284
1 37.963 39.0877 54.2821
1 40.8813 37.4408 51.9206
1 40.8473 39.0579 54.308
1 39.4019 36.6116 54.1853
1 42.3387 34.9751 51.9148
1 43.749 37.4072 51.9388
1 43.7765 39.0911 54.3201
1 42.2947 36.6161 54.275
1 45.1884 34.9484 51.9144
1 46.5981 37.5124 51.9588
1 46.6518 39.0678 54.3148
1 45.2114 36.5585 54.2974
1 48.0444 35.0499 51.901
1 49.4384 37.5898 51.9371
1 49.5095 39.1109 54.3421
1 48.1042 36.5862 54.2577
1 35.1729 42.4771 51.8523
1 35.1136 44.0831 54.232
1 36.5872 40.002 51.9201
1 38.0228 42.4898 51.9139
1 37.9815 44.0585 54.3546
1 36.5704 41.584 54.2889
1 39.4267 39.9258 51.9481
1 40.8646 42.5226 51.9357
1 40.8447 44.0754 54.3769
1 39.4414 41.571 54.3416
1 42.3259 39.9709 52.0138
1 43.7283 42.473 51.9909
1 43.7088 44.103 54.3192
1 42.309 41.6017 54.3681
1 45.1654 39.9665 52.0047
1 46.5738 42.4808 51.995
1 46.6087 44.1542 54.361
1 45.2198 41.6415 54.3509
1 48.0189 40.0411 51.9926
1 49.4746 42.551 52.0373
1 49.532 44.1533 54.4352
1 48.0539 41.627 54.4055
1 32.3632 47.489 51.8591
1 32.2406 49.0669 54.23
1 33.7526 44.98 51.8833
1 35.163 47.4882 51.9541
1 35.0311 49.1355 54.3379
1 33.6565 46.5789 54.2624
1 36.5795 44.9436 51.9655
1 38.0315 47.5023 51.9704
1 37.9393 49.0963 54.368
1 36.5079 46.6052 54.3347
1 39.4568 44.9564 51.995
1 40.861 47.449 52.0154
1 40.8447 49.0498 54.3631
1 39.4094 46.5487 54.3674
1 42.3215 44.9831 51.9654
1 43.7264 47.4721 52.0035
1 43.684 49.1364 54.3513
1 42.3013 46.5643 54.379
1 45.178 44.977 51.9765
1 46.6094 47.4565 51.9959
1 46.6005 49.1059 54.3586
1 45.1686 46.6028 54.4043
1 48.0697 44.973 52.0527
1 49.4395 47.524 52.0641
1 49.4637 49.1272 54.3714
1 48.0578 46.6495 54.4231
1 33.6762 49.9869 51.9637
1 36.545 49.9909 51.9485
1 39.4192 49.9595 51.9925
1 42.2598 49.9351 52.0249
1 45.1307 49.9315 52.0062
1 47.9939 49.9542 52.0227
1 43.6982 34.133 59.0506
1 46.5874 32.4803 56.5778
1 46.5867 34.0357 58.9728
1 49.4597 32.496 56.4466
1 49.4464 33.9396 58.8656
1 38.0301 37.4643 56.6429
1 38.01 39.0668 59.0701
1 40.8092 37.3524 56.6584
1 40.8666 38.981 59.0517
1 39.3727 36.6115 59.0249
1 42.2126 34.8911 56.6334
1 43.6872 37.332 56.6586
1 43.7907 38.9647 59.0441
1 42.2689 36.5036 59.0172
1 45.1317 34.8575 56.632
1 46.6051 37.3989 56.6593
1 46.6764 39.0459 59.0486
1 45.1829 36.5136 59.0278
1 47.9755 34.9194 56.598
1 49.4643 37.3958 56.642
1 49.5565 39.0323 59.0544
1 48.0948 36.4691 58.9875
1 35.1762 42.4643 56.6424
1 35.0531 44.0566 59.004
1 36.6152 39.9573 56.6901
1 37.9968 42.3876 56.7004
1 37.9502 44.0503 59.1254
1 36.5467 41.5813 59.0482
1 39.4599 39.9095 56.6746
1 40.8985 42.3346 56.7497
1 40.8488 44.0448 59.0879
1 39.4046 41.5178 59.1199
1 42.3173 39.8294 56.6753
1 43.7411 42.3812 56.7005
1 43.7152 43.9963 59.084
1 42.3321 41.4704 59.0893
1 45.1816 39.8678 56.6844
1 46.5859 42.3889 56.7108
1 46.6289 44.0461 59.0577
1 45.1819 41.469 59.0499
1 48.0578 39.8964 56.6809
1 49.5097 42.4589 56.7327
1 49.5193 44.0341 59.0934
1 48.0954 41.5335 59.0262
1 32.2853 47.4708 56.6043
1 32.2059 49.0637 59.0499
1 33.6596 44.9375 56.6138
1 35.0165 47.435 56.6257
1 34.9654 49.1077 59.0369
1 33.5869 46.5295 59.0022
1 36.5451 44.8979 56.736
1 37.9435 47.4255 56.7292
1 37.8965 49.0486 59.0755
1 36.4259 46.6081 59.0748
1 39.4514 44.8297 56.7309
1 40.8634 47.3731 56.7167
1 40.8094 49.0675 59.0713
1 39.3841 46.5228 59.0374
1 42.3131 44.8874 56.7537
1 43.7148 47.4404 56.7098
1 43.7077 49.0878 59.0672
1 42.268 46.5558 59.0736
1 45.1281 44.8995 56.7407
1 46.6082 47.4393 56.743
1 46.6231 49.1122 59.0964
1 45.1271 46.5854 59.1057
1 48.0385 44.8833 56.739
1 49.4626 47.4074 56.771
1 49.465 49.0988 59.094
1 48.0499 46.5192 59.0856
1 33.531 49.9378 56.6407
1 36.4776 49.9328 56.7
1 39.3687 49.9111 56.6677
1 42.2521 49.952 56.7096
1 45.1551 49.9516 56.6919
1 48.0296 49.9315 56.7323
1 43.7632 34.0763 63.7707
1 46.6865 32.4757 61.3241
1 46.6311 33.932 63.6893
1 49.4474 32.3626 61.1624
1 49.5453 33.84 63.6261
1 37.9685 37.4225 61.4765
1 37.9724 39.0608 63.8293
1 40.8166 37.2947 61.3866
1 40.8748 39.0346 63.7817
1 39.4287 36.6406 63.7733
1 42.3578 34.8546 61.4189
1 43.7351 37.276 61.423
1 43.7657 38.9723 63.7558
1 42.3235 36.4701 63.755
1 45.1735 34.7947 61.4048
1 46.658 37.31 61.3529
1 46.631 38.943 63.7097
1 45.2144 36.4034 63.7633
1 48.0771 34.8475 61.3205
1 49.5516 37.2812 61.343
1 49.5602 38.9043 63.7154
1 48.1013 36.362 63.689
1 35.1675 42.4022 61.3986
1 35.0618 44.0623 63.8105
1 36.6469 39.9143 61.4147
1 37.9653 42.3936 61.4792
1 37.8825 44.066 63.7716
1 36.5027 41.5393 63.8275
1 39.4673 39.8636 61.4625
1 40.8914 42.3554 61.4429
1 40.8033 44.0002 63.8086
1 39.3411 41.5276 63.8126
1 42.3202 39.7846 61.4438
1 43.7339 42.349 61.4175
1 43.6853 44.0357 63.7888
1 42.2877 41.4416 63.7623
1 45.1782 39.7876 61.4033
1 46.619 42.2836 61.3883
1 46.5868 43.9576 63.7428
1 45.1672 41.4616 63.726
1 48.125 39.8081 61.3969
1 49.5321 42.3371 61.4063
1 49.5321 43.959 63.7452
1 48.0531 41.4685 63.7157
1 32.2069 47.4935 61.4073
1 32.143 49.1005 63.7806
1 33.7014 44.9248 61.3695
1 35.0014 47.4604 61.4153
1 34.9671 49.1045 63.7924
1 33.5696 46.5713 63.7131
1 36.4836 44.9035 61.4021
1 37.9201 47.3988 61.3968
1 37.8936 49.0692 63.7544
1 36.4472 46.5743 63.7425
1 39.3798 44.8797 61.4353
1 40.8131 47.4004 61.4127
1 40.7955 49.081 63.712
1 39.3314 46.5521 63.7634
1 42.2704 44.9034 61.4402
1 43.7046 47.4291 61.4627
1 43.7248 49.0684 63.7841
1 42.2714 46.5636 63.7695
1 45.165 44.8636 61.3991
1 46.6535 47.3593 61.4542
1 46.6078 49.02 63.7431
1 45.1625 46.4972 63.7584
1 48.0584 44.8315 61.441
1 49.5157 47.4023 61.4318
1 49.5435 49.0443 63.7542
1 48.0781 46.4753 63.76
1 33.5245 49.9925 61.4273
1 36.4535 49.8984 61.3655
1 39.3698 49.8927 61.3595
1 42.2503 49.9555 61.4345
1 45.1677 49.9453 61.4095
1 48.0423 49.9096 61.4345
1 43.9013 34.0595 68.508
1 49.644 32.3176 66.0155
1 46.7313 33.8998 68.478
1 52.4525 32.3205 65.991
1 49.6039 33.8729 68.3554
1 38.0599 37.38 66.2037
1 38.1037 38.9589 68.566
1 40.9047 37.2897 66.099
1 40.9411 38.957 68.4909
1 39.4723 36.5024 68.5328
1 42.408 34.7919 66.1819
1 43.7747 37.2671 66.1214
1 43.8482 38.9684 68.4645
1 42.4189 36.4336 68.483
1 45.2479 34.7082 66.1175
1 46.6589 37.2263 66.0651
1 46.6978 38.9855 68.4075
1 45.32 36.4509 68.4593
1 48.1142 34.6986 66.0417
1 49.5725 37.2591 66.0157
1 49.6052 38.9639 68.3831
1 48.1435 36.4355 68.3746
1 35.1555 42.3962 66.2506
1 35.0648 44.0125 68.5153
1 36.6082 39.853 66.2331
1 37.9829 42.3366 66.1962
1 38.0006 43.9957 68.5276
1 36.5739 41.4881 68.584
1 39.4416 39.7943 66.1959
1 40.8704 42.3097 66.1365
1 40.8982 44.0045 68.4843
1 39.4579 41.4595 68.5281
1 42.3406 39.7614 66.0939
1 43.7594 42.3408 66.0741
1 43.7787 43.9885 68.4432
1 42.3527 41.4424 68.4139
1 45.2671 39.7966 66.074
1 46.6473 42.3276 66.0772
1 46.6908 44.0096 68.4466
1 45.1997 41.5053 68.4041
1 48.1172 39.798 66.0699
1 49.5618 42.2945 66.0439
1 49.6025 43.9872 68.3789
1 48.1682 41.4828 68.4106
1 32.2945 47.4955 66.14
1 32.266 49.0845 68.5241
1 33.614 44.9633 66.1268
1 35.1055 47.4175 66.1291
1 35.109 49.0876 68.4973
1 33.7108 46.5771 68.485
1 36.5103 44.8663 66.152
1 37.9725 47.3969 66.1236
1 37.9927 49.0742 68.4638
1 36.6007 46.5214 68.4568
1 39.374 44.8603 66.1316
1 40.7875 47.3934 66.0965
1 40.862 49.0919 68.4046
1 39.4496 46.5723 68.4843
1 42.3119 44.8927 66.108
1 43.7182 47.3859 66.1147
1 43.7408 49.085 68.4455
1 42.2765 46.5717 68.4474
1 45.1822 44.823 66.1167
1 46.6118 47.3048 66.0704
1 46.6585 49.0342 68.3724
1 45.1782 46.5213 68.426
1 48.1297 44.7807 66.0689
1 49.4718 47.3933 66.0675
1 49.5597 49.0718 68.4317
1 48.1125 46.5323 68.4283
1 33.603 49.9722 66.1906
1 36.4658 49.9444 66.1141
1 39.3798 49.9792 66.1131
1 42.2629 49.9032 66.0618
1 45.1606 49.8814 66.0812
1 48.062 49.8555 66.0601
1 43.9432 34.1218 73.2222
1 46.8979 32.4353 70.8601
1 46.845 34.0752 73.1508
1 49.7078 32.428 70.696
1 49.64 34.013 73.0837
1 38.2136 37.402 70.9658
1 38.1598 39.1357 73.2202
1 41.0033 37.3689 70.8605
1 41.0243 39.1084 73.2343
1 39.6846 36.6382 73.3018
1 42.4951 34.8701 70.8708
1 43.8867 37.3046 70.7936
1 43.9146 39.089 73.0928
1 42.4768 36.606 73.1684
1 45.3072 34.797 70.8365
1 46.7987 37.3053 70.7571
1 46.7966 39.0395 73.1342
1 45.3416 36.5401 73.147
1 48.2809 34.8372 70.7395
1 49.6355 37.3583 70.7053
1 49.5687 39.0554 73.0748
1 48.2257 36.5546 73.0861
1 35.2628 42.3689 70.9529
1 35.226 44.0588 73.2382
1 36.7179 39.8771 70.9575
1 38.0945 42.3441 70.8737
1 38.0895 44.0828 73.1965
1 36.7363 41.568 73.2763
1 39.5887 39.8606 70.8828
1 40.9904 42.3773 70.8036
1 40.9885 44.0749 73.1818
1 39.5979 41.5703 73.2137
1 42.4325 39.8669 70.8134
1 43.8328 42.3578 70.7763
1 43.8475 44.0628 73.1755
1 42.4892 41.5433 73.1572
1 45.2852 39.8902 70.7792
1 46.7301 42.339 70.7642
1 46.7097 44.0656 73.1408
1 45.3438 41.6115 73.1356
1 48.1701 39.8596 70.7111
1 49.5936 42.3621 70.7692
1 49.6067 44.0403 73.1235
1 48.1672 41.5874 73.0948
1 32.3987 47.4236 70.8615
1 32.4263 49.0365 73.2872
1 33.7792 44.9243 70.8833
1 35.1955 47.4157 70.8698
1 35.1972 49.0558 73.2086
1 33.7674 46.5613 73.2389
1 36.589 44.8679 70.8127
1 38.0122 47.3933 70.8349
1 38.0701 49.0348 73.145
1 36.6297 46.5609 73.2139
1 39.4919 44.8724 70.8272
1 40.9688 47.3684 70.8615
1 40.9695 49.0175 73.167
1 39.4961 46.5511 73.1823
1 42.41 44.9064 70.8025
1 43.8061 47.3686 70.8164
1 43.8709 49.077 73.1628
1 42.4022 46.5636 73.1844
1 45.2571 44.8547 70.7681
1 46.6965 47.3857 70.7639
1 46.7033 49.0303 73.1056
1 45.2553 46.5299 73.1348
1 48.1655 44.8702 70.7753
1 49.5664 47.3828 70.7512
1 49.5992 49.0207 73.0782
1 48.1592 46.5418 73.089
1 33.676 49.9008 70.8759
1 36.6043 49.9145 70.8178
1 39.5042 49.9058 70.7868
1 42.3613 49.8523 70.7781
1 45.2635 49.8656 70.7407
1 48.136 49.8852 70.7047
1 43.8861 34.1078 77.8618
1 47.017 32.5139 75.5068
1 46.7959 34.0564 77.8174
1 49.8393 32.4685 75.3927
1 49.6954 34.0087 77.7984
1 38.2183 37.5057 75.5891
1 38.1835 39.1191 77.9285
1 41.0818 37.475 75.6024
1 41.0674 39.1402 77.9343
1 39.6298 36.5787 77.8671
1 42.506 35.0241 75.4967
1 43.9278 37.4796 75.5586
1 43.9444 39.0682 77.9172
1 42.4448 36.543 77.8874
1 45.3632 34.9103 75.5505
1 46.7824 37.4175 75.5053
1 46.822 39.0646 77.8742
1 45.3369 36.5793 77.8799
1 48.3177 34.9792 75.4254
1 49.6522 37.4238 75.4628
1 49.6196 39.0981 77.8405
1 48.198 36.5838 77.8346
1 35.338 42.4502 75.6166
1 35.3229 44.0784 77.9432
1 36.7575 39.9575 75.604
1 38.1519 42.4231 75.5804
1 38.2111 44.1496 77.9506
1 36.7651 41.5618 77.9762