5538
Atoms. Timestep: 10000
1 43.8994 33.9385 7.47709
1 46.7879 32.3727 5.31699
1 46.8029 33.9857 7.50996
1 48.1264 31.5433 7.58857
1 49.6399 33.9556 7.30043
1 36.7123 36.7417 7.27638
1 38.1715 39.0429 7.15398
1 41.1353 37.3729 5.02925
1 41.0876 39.0056 7.22895
1 39.5401 36.5557 7.21072
1 41.1035 34.2006 7.36571
1 43.9551 37.323 4.91906
1 43.9802 38.9775 7.19037
1 42.512 36.4683 7.2537
1 45.3686 34.7622 5.14997
1 46.8102 37.2661 4.89209
1 46.8363 38.9385 7.19477
1 45.357 36.4855 7.27953
1 48.2288 34.7432 4.98891
1 49.6829 37.2254 4.85006
1 49.6555 38.9754 7.1205
1 48.2101 36.4285 7.2701
1 34.0218 41.4913 7.14349
1 35.306 43.9979 7.04634
1 35.3502 39.0813 7.11041
1 38.2666 42.2756 4.74498
1 38.1813 43.9487 7.04411
1 36.7949 41.5363 7.09243
1 39.6668 39.7842 4.87015
1 41.1205 42.2784 4.81437
1 41.0815 43.937 7.06077
1 39.6565 41.4963 7.10029
1 42.5703 39.7791 4.83931
1 44.0368 42.2841 4.77088
1 43.9703 43.9433 7.07153
1 42.5823 41.4672 7.14385
1 45.4545 39.7845 4.80545
1 46.8962 42.275 4.82128
1 46.84 43.9796 7.09802
1 45.414 41.4488 7.13108
1 48.2956 39.7813 4.83729
1 49.7476 42.256 4.86665
1 49.7453 43.9823 7.13693
1 48.3026 41.5044 7.21258
1 31.2429 46.243 7.49741
1 32.5124 48.9068 7.15999
1 32.5387 43.8066 7.24449
1 35.3355 47.297 4.80661
1 35.3753 48.9463 7.06653
1 33.9144 46.4493 7.155
1 36.8007 44.804 4.73468
1 38.1994 47.3248 4.63939
1 38.2524 48.938 6.97662
1 36.7605 46.4178 7.08416
1 39.5991 44.7702 4.62502
1 41.0429 47.2934 4.62458
1 41.0579 48.9909 6.93739
1 39.632 46.4325 6.97925
1 42.5341 44.8055 4.75637
1 43.8663 47.2907 4.65553
1 43.9544 48.9634 7.02447
1 42.4827 46.4848 7.04246
1 45.3776 44.8116 4.78967
1 46.8232 47.2646 4.77001
1 46.8786 48.9597 7.03617
1 45.3312 46.4532 7.09532
1 48.2709 44.7585 4.83073
1 49.7412 47.2522 4.75117
1 49.7584 48.9792 7.02399
1 48.2799 46.4704 7.12226
1 33.9293 49.812 4.83485
1 36.7529 49.8216 4.70963
1 39.6689 49.8263 4.61531
1 42.5578 49.7958 4.5919
1 45.4252 49.7815 4.65162
1 48.2837 49.7174 4.65154
1 43.9199 34.1019 12.0593
1 46.7454 32.4728 9.87825
1 46.7796 34.0384 12.1264
1 49.554 32.3709 9.80437
1 49.7198 34.0782 12.0469
1 38.1205 37.3678 9.53152
1 37.9846 38.9762 11.909
1 40.9628 37.2921 9.5422
1 40.9468 39.0229 11.8432
1 39.5138 36.5237 11.9073
1 42.4188 34.7891 9.67324
1 43.8989 37.3062 9.63588
1 43.8487 38.9918 11.9031
1 42.3944 36.4989 11.954
1 45.3209 34.9279 9.76864
1 46.8224 37.3655 9.65016
1 46.7675 39.0392 11.9489
1 45.3623 36.575 12.0191
1 48.2203 34.8736 9.71159
1 49.6973 37.3905 9.58104
1 49.6819 39.0728 11.8848
1 48.2841 36.5312 11.9963
1 35.2564 42.3958 9.45498
1 35.261 44.0819 11.86
1 36.7204 39.8847 9.45667
1 38.1316 42.3534 9.45206
1 38.131 44.0355 11.7888
1 36.7104 41.5575 11.8465
1 39.5164 39.8322 9.51296
1 40.9698 42.3155 9.463
1 41.0264 44.0106 11.798
1 39.4937 41.4751 11.8451
1 42.4678 39.8196 9.59318
1 43.8919 42.286 9.49848
1 43.9001 43.9857 11.8114
1 42.4278 41.5453 11.8516
1 45.3618 39.8121 9.53318
1 46.7771 42.3808 9.5563
1 46.726 44.0246 11.894
1 45.3107 41.5234 11.8687
1 48.2139 39.84 9.53809
1 49.7157 42.3394 9.51443
1 49.702 44.003 11.8538
1 48.1963 41.5635 11.9015
1 32.4984 47.4313 9.62632
1 32.4247 49.1814 11.8342
1 33.7801 44.9038 9.5024
1 35.342 47.3917 9.46296
1 35.205 49.0791 11.7709
1 33.8566 46.5654 11.8889
1 36.6817 44.8239 9.46901
1 38.2106 47.3236 9.39268
1 38.1528 49.0207 11.7335
1 36.6953 46.5647 11.8083
1 39.554 44.8517 9.43649
1 40.9945 47.318 9.38652
1 41.0171 48.9863 11.6922
1 39.5794 46.5256 11.8055
1 42.4572 44.8181 9.42256
1 43.8995 47.3171 9.41953
1 43.9517 48.9995 11.7099
1 42.4679 46.5062 11.7888
1 45.3418 44.8159 9.49571
1 46.7898 47.3007 9.42683
1 46.8415 48.9897 11.754
1 45.3515 46.5426 11.7833
1 48.2522 44.823 9.52189
1 49.7363 47.2994 9.42735
1 49.729 48.9718 11.7593
1 48.2582 46.5076 11.8186
1 33.8287 49.9067 9.36712
1 36.7546 49.8677 9.37362
1 39.6348 49.8802 9.30733
1 42.4526 49.7748 9.34137
1 45.3886 49.7999 9.4034
1 48.3092 49.7903 9.35109
1 43.9154 34.0853 16.6829
1 46.8935 32.4914 14.4746
1 46.821 34.1192 16.7436
1 49.6935 32.4467 14.324
1 49.7137 34.0321 16.6702
1 38.138 37.3662 14.3353
1 38.0414 39.0404 16.6487
1 40.9402 37.2974 14.2272
1 40.9922 39.0213 16.6024
1 39.5247 36.634 16.6499
1 42.4555 34.8325 14.3485
1 43.8057 37.2964 14.2744
1 43.8054 39.0081 16.6283
1 42.3982 36.4467 16.5919
1 45.3381 34.8734 14.3755
1 46.7689 37.3756 14.3204
1 46.7233 39.057 16.6073
1 45.2551 36.5734 16.6601
1 48.2445 34.9481 14.3707
1 49.7156 37.3991 14.2358
1 49.6549 39.0671 16.632
1 48.24 36.5868 16.6704
1 35.3089 42.483 14.2117
1 35.1645 44.1415 16.5842
1 36.7183 39.8906 14.2518
1 38.1189 42.4039 14.202
1 38.0508 44.0364 16.5356
1 36.6382 41.5435 16.5961
1 39.5278 39.8298 14.2045
1 40.9945 42.3116 14.1666
1 40.9583 44.0169 16.5338
1 39.4823 41.5086 16.524
1 42.4336 39.8127 14.223
1 43.834 42.304 14.183
1 43.8417 43.9648 16.5454
1 42.3759 41.539 16.5599
1 45.3008 39.7931 14.2537
1 46.7702 42.3139 14.2556
1 46.7565 44.0324 16.5669
1 45.2063 41.48 16.6181
1 48.2205 39.8293 14.2483
1 49.6089 42.369 14.2073
1 49.6775 44.014 16.5459
1 48.1895 41.5228 16.6442
1 32.425 47.4759 14.1467
1 32.4204 49.092 16.5237
1 33.8558 44.9527 14.217
1 35.2522 47.4106 14.183
1 35.2576 49.0527 16.5338
1 33.7337 46.618 16.5427
1 36.6915 44.9392 14.1607
1 38.1106 47.3695 14.1828
1 38.0985 49.0435 16.5084
1 36.6421 46.5301 16.5527
1 39.568 44.8702 14.1218
1 41.0068 47.3424 14.1553
1 40.9858 49.0044 16.4725
1 39.5308 46.4733 16.5001
1 42.4322 44.8226 14.1551
1 43.8631 47.3245 14.1504
1 43.9092 48.9954 16.4745
1 42.4265 46.4817 16.5221
1 45.2946 44.8458 14.229
1 46.7565 47.2916 14.1625
1 46.7629 48.9771 16.4833
1 45.3041 46.4559 16.5326
1 48.2121 44.8416 14.1855
1 49.6325 47.3239 14.1509
1 49.6756 49.0662 16.451
1 48.172 46.5335 16.5226
1 33.8167 49.9156 14.1613
1 36.7381 49.8359 14.1241
1 39.5995 49.8317 14.0694
1 42.4457 49.7845 14.087
1 45.3521 49.7993 14.1291
1 48.217 49.8109 14.119
1 43.8698 34.05 21.3502
1 46.8466 32.5236 19.0444
1 46.7269 34.0034 21.4033
1 49.6772 32.397 18.9192
1 49.6482 34.0147 21.3449
1 38.0614 37.3987 19.0232
1 38.0458 39.0636 21.3545
1 40.9346 37.3755 19.0251
1 40.9204 39.0552 21.3381
1 39.465 36.5813 21.3911
1 42.489 34.8468 19.0006
1 43.7768 37.3923 18.9759
1 43.8556 39.0161 21.3145
1 42.3639 36.5421 21.3662
1 45.3289 34.9562 19.0497
1 46.7067 37.4113 18.9772
1 46.7667 39.0588 21.3192
1 45.2838 36.5187 21.3874
1 48.2652 34.8977 19.0919
1 49.6545 37.3623 18.9903
1 49.6466 39.0263 21.3552
1 48.1978 36.5241 21.3834
1 35.231 42.4532 18.8761
1 35.1148 44.0722 21.3012
1 36.6579 39.9311 18.9637
1 38.0545 42.3324 18.9175
1 37.9976 44.0486 21.2773
1 36.5782 41.5496 21.2764
1 39.4937 39.8785 18.9471
1 40.9183 42.3912 18.9485
1 40.9061 44.0338 21.2576
1 39.4422 41.5264 21.2826
1 42.3648 39.8762 18.9625
1 43.8524 42.385 18.9756
1 43.8074 44.0791 21.341
1 42.3717 41.5112 21.3128
1 45.2812 39.8433 18.9997
1 46.7999 42.3208 18.9536
1 46.7627 44.0243 21.3088
1 45.2864 41.5753 21.2771
1 48.1239 39.8416 18.9787
1 49.6717 42.3821 18.9354
1 49.627 44.0393 21.3114
1 48.2521 41.5511 21.3028
1 32.3477 47.46 18.8763
1 32.3548 49.0966 21.2646
1 33.7593 44.9647 18.9527
1 35.1975 47.4079 18.9237
1 35.1682 49.0871 21.2605
1 33.6628 46.6198 21.2706
1 36.6294 44.9026 18.9644
1 38.0773 47.3478 18.8887
1 38.0519 49.0924 21.2601
1 36.5968 46.5537 21.3097
1 39.5023 44.8822 18.8621
1 40.9804 47.3646 18.8704
1 40.9292 49.0241 21.2699
1 39.4415 46.5864 21.2382
1 42.4415 44.8266 18.9103
1 43.8403 47.3368 18.8986
1 43.8672 49.0005 21.1905
1 42.3826 46.5292 21.3054
1 45.2788 44.8339 18.9567
1 46.7321 47.3574 18.8954
1 46.7618 49.0535 21.2263
1 45.27 46.5113 21.2828
1 48.1723 44.8759 18.9426
1 49.5969 47.3549 18.8574
1 49.6835 49.0688 21.1785
1 48.192 46.5712 21.258
1 33.7774 49.93 18.9467
1 36.6986 49.8892 18.9248
1 39.5662 49.8426 18.8483
1 42.424 49.8562 18.8681
1 45.2935 49.8588 18.8204
1 48.1589 49.8586 18.8578
1 43.8488 34.0894 26.119
1 46.7288 32.4432 23.7636
1 46.7005 34.0139 26.0831
1 49.5095 32.4387 23.6711
1 49.5851 33.9403 26.0202
1 38.171 37.4801 23.7003
1 38.0272 39.0142 26.1023
1 40.9434 37.3946 23.691
1 40.9178 39.0342 26.046
1 39.5321 36.5838 26.0282
1 42.3972 34.9098 23.6851
1 43.8398 37.3874 23.7187
1 43.8863 39.0366 26.0403
1 42.4067 36.5023 26.0316
1 45.2047 34.8436 23.7472
1 46.7049 37.4138 23.6788
1 46.7873 39.0595 26.0355
1 45.292 36.5056 26.0542
1 48.1405 34.8929 23.698
1 49.5662 37.3867 23.6953
1 49.624 39.0647 26.0702
1 48.1278 36.5012 26.0096
1 35.2082 42.3909 23.6384
1 35.066 44.0197 26.0031
1 36.6835 39.9113 23.6967
1 38.0425 42.3657 23.6091
1 38.0148 44.0406 25.9819
1 36.5349 41.5324 26.03
1 39.4851 39.8942 23.697
1 40.9465 42.3945 23.6405
1 40.9306 44.0063 25.9555
1 39.4569 41.5328 25.9692
1 42.3684 39.8695 23.6994
1 43.8207 42.4069 23.6691
1 43.8163 44.0878 25.9951
1 42.4136 41.5932 25.9732
1 45.276 39.9291 23.6882
1 46.7559 42.3836 23.6397
1 46.7734 44.118 25.9993
1 45.2761 41.6044 26.011
1 48.1467 39.9252 23.6999
1 49.6191 42.4363 23.6709
1 49.6214 44.1453 26.0193
1 48.2016 41.5909 26.0392
1 32.3244 47.4603 23.6339
1 32.3744 49.0748 26.0077
1 33.7159 44.8836 23.6606
1 35.1317 47.3718 23.6383
1 35.1975 49.0235 25.9958
1 33.639 46.5095 25.9856
1 36.5708 44.8794 23.6452
1 38.027 47.406 23.6347
1 38.0846 49.0738 25.9706
1 36.5473 46.5701 26.0211
1 39.467 44.8934 23.6028
1 40.8844 47.3569 23.6333
1 40.9644 49.0951 25.9766
1 39.4528 46.51 25.9576
1 42.3508 44.8994 23.6326
1 43.8306 47.3627 23.6114
1 43.852 49.0263 25.916
1 42.3799 46.5769 25.9878
1 45.3203 44.874 23.6437
1 46.7121 47.4017 23.6119
1 46.7063 49.0788 25.9009
1 45.2686 46.5649 25.9339
1 48.143 44.9228 23.675
1 49.6091 47.3858 23.6445
1 49.5861 49.0939 25.9038
1 48.1529 46.6036 25.9886
1 33.7341 49.8726 23.5924
1 36.6034 49.8865 23.5946
1 39.5296 49.8828 23.5848
1 42.4428 49.8697 23.5884
1 45.3083 49.8622 23.568
1 48.1584 49.9133 23.5277
1 49.6253 32.4871 28.4469
1 52.4041 32.4262 28.4261
1 38.2046 37.3777 28.4678
1 40.975 37.4088 28.4348
1 42.4076 34.938 28.4239
1 43.8074 37.4319 28.3934
1 45.2322 34.9006 28.3839
1 46.7028 37.3641 28.3185
1 48.1697 34.914 28.3645
1 49.5852 37.4283 28.3824
1 35.2072 42.3963 28.363
1 36.5971 39.8858 28.4202
1 38.0476 42.3467 28.3115
1 39.538 39.8975 28.3882
1 40.9004 42.3664 28.3306
1 42.4015 39.947 28.37
1 43.8264 42.4861 28.3377
1 45.3071 39.9678 28.3416
1 46.7043 42.4721 28.3803
1 48.16 39.9512 28.4151
1 49.5715 42.4758 28.4035
1 32.3254 47.4711 28.3447
1 33.757 44.9054 28.3681
1 35.1197 47.3776 28.324
1 36.573 44.8693 28.3233
1 38.0145 47.4394 28.3527
1 39.4577 44.907 28.3258
1 40.8755 47.439 28.3229
1 42.3407 44.9316 28.3221
1 43.8086 47.4244 28.3242
1 45.2566 44.9768 28.3364
1 46.6978 47.4425 28.2857
1 48.1471 44.9861 28.3673
1 49.6092 47.4592 28.3469
1 33.7565 49.9344 28.3367
1 36.6053 49.9287 28.327
1 39.4666 49.9313 28.2663
1 42.3986 49.9442 28.3151
1 45.2667 49.8966 28.2757
1 48.1658 49.9482 28.2677
1 43.8445 34.1644 30.7933
1 46.7119 34.1471 30.7587
1 49.5668 34.0528 30.7616
1 38.1429 39.0607 30.7488
1 40.9755 39.1083 30.7152
1 39.617 36.5958 30.8229
1 43.8558 39.1369 30.7219
1 42.4139 36.623 30.7653
1 46.7087 39.1209 30.6732
1 45.3116 36.6163 30.715
1 49.5769 39.1187 30.7355
1 48.168 36.6215 30.7086
1 35.2017 44.0806 30.6739
1 38.0759 44.1044 30.6117
1 36.63 41.5946 30.6791
1 40.9388 44.1405 30.66
1 39.4641 41.6027 30.7226
1 43.8402 44.1846 30.6454
1 42.3957 41.6811 30.6923
1 46.6925 44.1658 30.7343
1 45.2803 41.6511 30.6893
1 49.5916 44.166 30.7885
1 48.0754 41.6569 30.7372
1 32.3334 49.0124 30.7437
1 35.1882 49.0835 30.7028
1 33.7719 46.5351 30.6638
1 38.0838 49.0816 30.6552
1 36.6515 46.5677 30.6545
1 40.9662 49.1433 30.6697
1 39.5487 46.5946 30.683
1 43.8916 49.1654 30.6687
1 42.3825 46.6431 30.6713
1 46.7851 49.1703 30.6138
1 45.3093 46.6775 30.6289
1 49.6263 49.1406 30.6651
1 48.1628 46.6533 30.6962
1 43.7015 34.2422 35.461
1 46.7313 32.5542 33.1167
1 46.6235 34.1441 35.3943
1 49.523 32.5458 33.1746
1 49.4976 34.1528 35.4353
1 38.229 37.4579 33.1417
1 38.0923 39.1313 35.4402
1 41.0202 37.5594 33.1025
1 41.0139 39.1545 35.4338
1 39.5873 36.7267 35.4358
1 42.3164 35.0302 33.1349
1 43.818 37.5013 33.109
1 43.8591 39.2336 35.4199
1 42.3712 36.6815 35.495
1 45.1997 34.9688 33.1206
1 46.7115 37.5278 33.0415
1 46.7262 39.1688 35.4505
1 45.229 36.7159 35.3948
1 48.0906 35.0201 33.0561
1 49.6238 37.4639 33.0939
1 49.6118 39.1239 35.4371
1 48.1336 36.6542 35.409
1 35.2529 42.4014 33.0149
1 35.2545 44.0631 35.3513
1 36.7108 39.9113 33.0503
1 38.0724 42.4605 33.0545
1 38.1035 44.1407 35.3813
1 36.6689 41.6337 35.3606
1 39.499 39.9838 33.1102
1 40.9287 42.505 33.06
1 40.9662 44.2446 35.3837
1 39.5407 41.6554 35.4381
1 42.4187 40.0562 33.0699
1 43.848 42.5556 33.0536
1 43.8427 44.2032 35.4475
1 42.4127 41.6817 35.421
1 45.2841 40.0495 33.0765
1 46.671 42.5478 33.1051
1 46.698 44.1913 35.455
1 45.2965 41.6759 35.4584
1 48.1672 39.9663 33.0879
1 49.5803 42.49 33.1239
1 49.5773 44.1205 35.5011
1 48.1786 41.6332 35.4642
1 32.3715 47.421 33.0474
1 32.3454 49.0929 35.3342
1 33.7962 44.9428 33.0521
1 35.1939 47.4389 33.0029
1 35.1934 49.065 35.3671
1 33.7534 46.6122 35.3902
1 36.6539 44.9147 33.0246
1 38.1149 47.4349 33.0384
1 38.0823 49.0951 35.4033
1 36.6354 46.5834 35.3848
1 39.4911 44.9901 32.9903
1 40.9982 47.4929 33.0501
1 41.0035 49.1464 35.3761
1 39.5653 46.6634 35.4129
1 42.4023 44.981 33.0354
1 43.8741 47.5198 33.0345
1 43.8656 49.1603 35.4252
1 42.4171 46.7006 35.422
1 45.3043 45.0532 33.063
1 46.7384 47.5241 33.0541
1 46.7605 49.1317 35.4068
1 45.2465 46.7132 35.4691
1 48.1419 44.9962 33.0626
1 49.5927 47.5112 33.046
1 49.6123 49.0838 35.4378
1 48.1806 46.6677 35.4815
1 33.6984 49.9682 33.0388
1 36.6384 49.9053 33.0267
1 39.5199 49.94 33.0494
1 42.4423 49.9422 33.0293
1 45.3284 50.027 33.0288
1 48.1768 50.0173 33.104
1 43.7344 34.197 40.1836
1 46.5905 32.6699 37.8543
1 46.6006 34.2424 40.1175
1 49.4481 32.5657 37.7588
1 49.518 34.1545 40.1286
1 38.1749 37.4994 37.8516
1 38.0209 39.1247 40.1584
1 40.9352 37.5527 37.838
1 40.8877 39.1475 40.1651
1 39.5316 36.6784 40.261
1 42.2975 35.0272 37.8486
1 43.7682 37.5267 37.8002
1 43.8002 39.1974 40.1743
1 42.3681 36.7258 40.1722
1 45.1287 35.068 37.7868
1 46.6078 37.5245 37.8069
1 46.6606 39.1805 40.1779
1 45.1786 36.7062 40.2252
1 48.054 35.0646 37.7495
1 49.5238 37.4999 37.8162
1 49.5052 39.1293 40.1951
1 48.0512 36.69 40.1545
1 35.2635 42.4411 37.757
1 35.1461 44.097 40.1313
1 36.6619 39.9547 37.7784
1 38.066 42.4728 37.7375
1 37.9937 44.1135 40.1469
1 36.5547 41.5804 40.1137
1 39.4808 40.0122 37.8037
1 40.9369 42.5433 37.7944
1 40.9403 44.1611 40.1629
1 39.4368 41.652 40.1671
1 42.3682 40.0233 37.8133
1 43.8189 42.5259 37.8113
1 43.7691 44.1464 40.1517
1 42.3522 41.657 40.1545
1 45.2118 40.0167 37.8213
1 46.7096 42.5023 37.813
1 46.6858 44.1492 40.1961
1 45.2441 41.6666 40.2192
1 48.092 40.0095 37.8256
1 49.5607 42.4709 37.8463
1 49.5646 44.1603 40.1641
1 48.1147 41.65 40.1894
1 32.4246 47.4719 37.6894
1 32.4494 49.0998 40.0835
1 33.867 44.9718 37.7427
1 35.2711 47.4943 37.7473
1 35.2146 49.1537 40.0574
1 33.7415 46.6194 40.0695
1 36.6356 44.9804 37.7491
1 38.0698 47.4705 37.7411
1 38.044 49.0691 40.0971
1 36.5991 46.57 40.1123
1 39.5025 44.9938 37.7623
1 40.9925 47.5108 37.7547
1 41.0087 49.1375 40.1472
1 39.4732 46.6041 40.0899
1 42.3537 44.9944 37.7987
1 43.8234 47.5234 37.7802
1 43.8766 49.0844 40.1596
1 42.3963 46.623 40.1524
1 45.2629 44.9871 37.8385
1 46.7183 47.4397 37.8139
1 46.74 49.1362 40.1326
1 45.2871 46.6625 40.1409
1 48.1323 45.0022 37.8184
1 49.5754 47.4882 37.7843
1 49.598 49.1235 40.226
1 48.1258 46.6471 40.1809
1 33.7909 49.9644 37.6793
1 36.6745 49.9434 37.6966
1 39.5457 49.923 37.7902
1 42.4028 49.9804 37.8007
1 45.2737 49.9277 37.7564
1 48.1608 49.922 37.786
1 46.5592 32.6396 42.4045
1 49.3247 32.6666 42.4573
1 38.0885 37.4747 42.5351
1 40.8725 37.5222 42.529
1 42.2495 35.0391 42.473
1 43.7165 37.5089 42.5981
1 45.1336 35.0105 42.5514
1 46.6134 37.5502 42.594
1 48.0716 35.0778 42.4732
1 49.5298 37.5008 42.5107
1 35.1567 42.4633 42.4708
1 36.6117 39.9978 42.5216
1 37.9558 42.4397 42.5331
1 39.3931 39.9705 42.5362
1 40.8671 42.4822 42.5257
1 42.2888 40.0129 42.5047
1 43.7212 42.4518 42.5684
1 45.1842 39.97 42.5776
1 46.6323 42.4757 42.5627
1 48.1124 39.9994 42.5613
1 49.5443 42.4751 42.5381
1 32.3873 47.5265 42.4073
1 33.7212 45.0058 42.4781
1 35.1482 47.4555 42.4746
1 36.6041 44.9836 42.5006
1 38.0008 47.4936 42.5096
1 39.4366 44.9221 42.4982
1 40.9286 47.3965 42.468
1 42.3668 44.9603 42.5491
1 43.808 47.4259 42.5287
1 45.1941 44.9221 42.5126
1 46.707 47.4346 42.5313
1 48.1448 44.9608 42.5571
1 49.6623 47.4023 42.612
1 33.7844 50.0447 42.4207
1 36.6411 49.9658 42.4311
1 39.5024 49.8715 42.498
1 42.3922 49.9276 42.52
1 45.2494 49.9477 42.506
1 48.1423 49.8996 42.5799
1 43.7717 34.1503 44.8595
1 46.6694 34.1716 44.8648
1 49.5205 34.1175 44.8914
1 38.0128 39.0942 44.8825
1 40.8679 39.0936 44.9312
1 39.4576 36.6051 44.8842
1 43.7441 39.1209 44.9077
1 42.2923 36.599 44.8806
1 46.6556 39.1114 44.9776
1 45.202 36.5946 44.9207
1 49.5346 39.0962 44.9042
1 48.1463 36.6112 44.9112
1 35.1332 44.0922 44.8141
1 38.0135 44.1111 44.8499
1 36.5487 41.5906 44.9142
1 40.9372 44.1124 44.896
1 39.4211 41.6284 44.8746
1 43.7805 44.112 44.9716
1 42.3112 41.5762 44.9218
1 46.6397 44.1573 44.9081
1 45.2018 41.6043 44.8824
1 49.5622 44.0678 44.8712
1 48.0744 41.6398 44.9362
1 32.4154 49.1393 44.7659
1 35.1938 49.1835 44.7714
1 33.7313 46.6026 44.8329
1 38.0428 49.0553 44.8693
1 36.5461 46.6201 44.8651
1 40.9191 49.0526 44.844
1 39.4862 46.594 44.8777
1 43.8552 49.1013 44.8467
1 42.4115 46.625 44.8737
1 46.7594 49.0877 44.8387
1 45.276 46.6065 44.8855
1 49.5867 49.1283 44.9494
1 48.1813 46.6062 44.8981
1 43.6912 34.1037 49.6633
1 46.8743 32.4891 47.1672
1 46.5735 33.9833 49.6137
1 49.6597 32.4842 47.2253
1 49.4645 33.9495 49.6257
1 38.0303 37.459 47.222
1 37.9626 39.0659 49.6427
1 40.8545 37.3634 47.3143
1 40.8571 39.0985 49.6323
1 39.42 36.6667 49.6809
1 42.3336 34.9271 47.2645
1 43.7282 37.3392 47.3087
1 43.7416 39.1116 49.6612
1 42.2681 36.6191 49.6306
1 45.2044 34.8039 47.2868
1 46.6066 37.3491 47.2783
1 46.6322 39.0023 49.6746
1 45.1991 36.4958 49.7047
1 48.1365 34.903 47.3117
1 49.5235 37.4403 47.2772
1 49.5452 39.0729 49.6033
1 48.0883 36.5021 49.634
1 35.1405 42.4635 47.2369
1 34.982 44.1308 49.6009
1 36.5837 39.9686 47.2504
1 37.9515 42.4464 47.215
1 37.8879 44.1538 49.5905
1 36.5141 41.647 49.6481
1 39.4079 39.9671 47.3007
1 40.8588 42.4541 47.2607
1 40.8146 44.1167 49.6116
1 39.3394 41.6297 49.6682
1 42.2795 39.8658 47.2221
1 43.7349 42.4009 47.2368
1 43.7731 44.074 49.5968
1 42.2957 41.5908 49.6161
1 45.2075 39.9283 47.3242
1 46.6192 42.4647 47.271
1 46.6398 44.0784 49.6226
1 45.1844 41.5547 49.6487
1 48.0691 39.9304 47.3122
1 49.5221 42.4339 47.2617
1 49.5667 44.0624 49.6271
1 48.0654 41.5253 49.6503
1 32.3225 47.5228 47.1752
1 32.35 49.1101 49.5632
1 33.672 44.9962 47.1748
1 35.0894 47.4873 47.194
1 35.1222 49.1995 49.5697
1 33.6817 46.6414 49.5847
1 36.5123 44.968 47.2275
1 37.998 47.4281 47.2267
1 38.0058 49.1261 49.6098
1 36.5127 46.6736 49.6103
1 39.4631 44.9556 47.2435
1 40.8867 47.4538 47.2218
1 40.9102 49.1089 49.5772
1 39.4127 46.5903 49.5855
1 42.2979 44.9325 47.2781
1 43.8324 47.4327 47.2031
1 43.777 49.1233 49.6313
1 42.2847 46.5894 49.5791
1 45.2253 44.9617 47.2647
1 46.7212 47.4503 47.2383
1 46.7195 49.1109 49.5873
1 45.2316 46.5975 49.5787
1 48.0906 44.9017 47.2265
1 49.5948 47.3744 47.2787
1 49.5741 49.05 49.5967
1 48.0883 46.5346 49.6007
1 33.7161 49.9747 47.198
1 36.5856 49.9771 47.1929
1 39.5087 49.9359 47.2097
1 42.3785 49.9601 47.1844
1 45.2251 49.9284 47.2058
1 48.1216 49.9528 47.2475
1 43.7679 34.1451 54.4016
1 46.6523 32.4839 52.0965
1 46.654 34.0847 54.4039
1 49.4167 32.4094 52.0886
1 49.5247 34.0386 54.3809
1 38.0437 37.5516 52.0517
1 37.9595 39.2115 54.3575
1 40.8625 37.4282 52.0436
1 40.816 39.1372 54.4354
1 39.3775 36.6151 54.3469
1 42.3144 34.9801 52.006
1 43.7615 37.392 52.072
1 43.6927 39.1007 54.3534
1 42.2224 36.5315 54.3654
1 45.1706 34.8429 52.0614
1 46.6338 37.3338 52.0222
1 46.6624 39.0088 54.3739
1 45.1591 36.5411 54.3823
1 48.0404 34.8602 51.9915
1 49.5181 37.3561 51.9893
1 49.5525 39.0588 54.3318
1 48.0995 36.5392 54.3592
1 35.1307 42.5084 52.0289
1 35.0945 44.1912 54.393
1 36.5646 40.0415 51.9756
1 37.9535 42.5333 51.9942
1 37.963 44.1829 54.3581
1 36.5359 41.6907 54.4015
1 39.4665 39.9918 52.0183
1 40.8432 42.4512 51.9617
1 40.8579 44.1506 54.2944
1 39.4297 41.653 54.3815
1 42.3152 39.9156 51.9861
1 43.7333 42.4317 51.9577
1 43.8295 44.114 54.2966
1 42.2805 41.6061 54.3514
1 45.1871 39.9214 52.017
1 46.6334 42.4387 51.9946
1 46.6984 44.0897 54.3288
1 45.1821 41.5852 54.34
1 48.0692 39.8687 51.9919
1 49.5412 42.3703 51.9705
1 49.5671 44.0131 54.315
1 48.0582 41.4832 54.3599
1 32.3001 47.5947 52.0741
1 32.3136 49.1932 54.4073
1 33.6307 45.0436 51.9496
1 35.11 47.5276 51.9609
1 35.148 49.2481 54.3059
1 33.7015 46.6997 54.3459
1 36.4856 44.9755 51.9519
1 37.9694 47.5165 51.9747
1 37.9975 49.1942 54.2955
1 36.5108 46.7115 54.3325
1 39.3702 45.013 51.9689
1 40.8529 47.4353 51.9446
1 40.9157 49.1304 54.2042
1 39.4214 46.6941 54.3117
1 42.2864 44.9098 51.9643
1 43.7813 47.4115 51.9449
1 43.8478 49.1067 54.3038
1 42.3809 46.6351 54.299
1 45.1821 44.9416 51.9729
1 46.6581 47.3989 51.9813
1 46.7523 49.1098 54.2979
1 45.2959 46.6293 54.3078
1 48.1015 44.9079 51.9915
1 49.5975 47.421 51.9852
1 49.5858 49.0833 54.2916
1 48.1792 46.5624 54.3207
1 33.6614 50.0625 51.9904
1 36.5901 49.9931 51.9218
1 39.487 49.9753 51.9106
1 42.3473 49.9427 51.8963
1 45.2577 49.9008 51.9739
1 48.1132 49.8713 51.9532
1 43.8982 34.1477 59.0813
1 46.5842 32.5672 56.7767
1 46.7306 34.1169 59.0923
1 49.3735 32.5312 56.819
1 49.5478 34.1057 59.1153
1 38.0168 37.5808 56.687
1 38.0364 39.209 59.0828
1 40.8284 37.3812 56.702
1 40.9113 39.1512 59.0503
1 39.4088 36.7164 59.0897
1 42.3308 34.9106 56.7606
1 43.7335 37.3895 56.7114
1 43.7469 39.1014 59.0474
1 42.3628 36.6309 59.03
1 45.196 34.9086 56.7738
1 46.6474 37.4244 56.7234
1 46.6492 39.1575 59.0508
1 45.2819 36.5831 59.0394
1 48.0577 34.999 56.6977
1 49.5432 37.4413 56.6849
1 49.597 39.1213 59.0158
1 48.1506 36.6395 59.1124
1 35.1424 42.5798 56.7179
1 35.1783 44.1886 59.091
1 36.6231 40.0641 56.7459
1 37.9985 42.5536 56.7186
1 38.0828 44.2248 58.9936
1 36.5548 41.6752 59.049
1 39.4399 40.0206 56.775
1 40.9141 42.5007 56.6512
1 40.9631 44.1989 58.987
1 39.4688 41.7298 59.0314
1 42.3335 39.9182 56.7177
1 43.7486 42.4933 56.6616
1 43.8146 44.1803 59.0259
1 42.3454 41.6638 59.0463
1 45.1889 39.9275 56.7044
1 46.6821 42.3851 56.6789
1 46.7171 44.1036 59.0262
1 45.249 41.6643 59.0391
1 48.0646 39.9224 56.6779
1 49.5671 42.4283 56.6674
1 49.5815 44.098 58.9776
1 48.1289 41.6374 59.0414
1 32.3507 47.6241 56.7826
1 32.4018 49.2685 59.1123
1 33.7204 45.1337 56.7909
1 35.1808 47.5743 56.7082
1 35.2184 49.2429 59.0441
1 33.7676 46.7422 59.0903
1 36.5603 45.0854 56.6683
1 38.0511 47.5573 56.6673
1 38.0956 49.2082 58.9945
1 36.6044 46.6969 59.0454
1 39.5041 45.0687 56.6408
1 40.962 47.4642 56.6061
1 40.9562 49.1673 59.0179
1 39.5309 46.7067 58.9657
1 42.3486 44.9945 56.6447
1 43.8686 47.4812 56.6495
1 43.8563 49.2214 59.0196
1 42.4451 46.6548 58.9806
1 45.292 44.9541 56.6877
1 46.7403 47.4495 56.6461
1 46.7571 49.1434 58.9474
1 45.294 46.6841 58.9951
1 48.1665 44.9176 56.6872
1 49.6531 47.4304 56.6879
1 49.6417 49.1228 59.0128
1 48.1493 46.6571 58.9926
1 33.7597 50.1041 56.7588
1 36.6384 50.047 56.6969
1 39.5526 49.9806 56.6176
1 42.3769 49.9773 56.6499
1 45.2728 49.9649 56.6926
1 48.2133 49.8972 56.6564
1 43.7817 34.2484 63.736
1 46.7999 32.6564 61.4818
1 46.6834 34.1816 63.8256
1 49.5945 32.5816 61.4613
1 49.6152 34.0151 63.8333
1 38.1778 37.5411 61.4287
1 38.1359 39.1149 63.7402
1 40.9791 37.5107 61.4108
1 40.9793 39.183 63.7439
1 39.5648 36.6866 63.7562
1 42.4186 35.074 61.362
1 43.8105 37.4897 61.432
1 43.8913 39.1075 63.7194
1 42.3899 36.6309 63.7573
1 45.3 35.0147 61.4433
1 46.6764 37.5126 61.3839
1 46.7417 39.1333 63.7519
1 45.2751 36.6417 63.7819
1 48.1566 35.0447 61.4978
1 49.6226 37.5164 61.4281
1 49.6356 39.1298 63.7633
1 48.1592 36.576 63.8114
1 35.2516 42.4995 61.41
1 35.2607 44.1389 63.7572
1 36.7258 40.0669 61.4639
1 38.0956 42.578 61.3717
1 38.1515 44.1999 63.6933
1 36.7464 41.671 63.7429
1 39.5653 40.0464 61.3752
1 40.9847 42.5962 61.37
1 41.0101 44.2485 63.7182
1 39.5439 41.6844 63.707
1 42.4033 40.0137 61.3896
1 43.8683 42.4881 61.366
1 43.9128 44.1369 63.6624
1 42.4073 41.6864 63.727
1 45.2912 39.9983 61.3498
1 46.7686 42.4778 61.4144
1 46.7695 44.1824 63.7164
1 45.3187 41.6616 63.7107
1 48.1867 40.0025 61.3799
1 49.6442 42.4672 61.3495
1 49.6265 44.0784 63.7522
1 48.1673 41.6479 63.7553
1 32.474 47.6167 61.5387
1 32.5157 49.2321 63.8681
1 33.8391 45.0473 61.4411
1 35.2841 47.5922 61.3867
1 35.3091 49.1982 63.7216
1 33.8885 46.6712 63.769
1 36.6721 45.0374 61.3839
1 38.1108 47.5534 61.376
1 38.1533 49.1699 63.7189
1 36.7192 46.6882 63.7465
1 39.558 45.0858 61.3668
1 40.9948 47.52 61.3115
1 41.0915 49.2707 63.6797
1 39.5799 46.737 63.7098
1 42.4238 45.0087 61.3305
1 43.8779 47.5382 61.3301
1 43.9627 49.2313 63.7675
1 42.4836 46.7244 63.6706
1 45.3111 45.0107 61.3314
1 46.7772 47.5194 61.3828
1 46.786 49.1963 63.8142
1 45.3472 46.7056 63.6735
1 48.2332 44.9866 61.3466
1 49.6413 47.4764 61.3953
1 49.655 49.1496 63.7289
1 48.1741 46.7075 63.7544
1 33.87 50.0764 61.4476
1 36.6948 50.0689 61.4013
1 39.5701 50.0319 61.388
1 42.4283 50.0177 61.3495
1 45.317 50.0057 61.3448
1 48.2077 50.0162 61.3602
1 43.7907 34.1976 68.5389
1 49.4609 32.5242 66.2229
1 46.6402 34.1833 68.5083
1 52.2649 32.5211 66.1537
1 49.5114 34.0981 68.5215
1 38.1307 37.4152 66.1147
1 38.1179 39.0937 68.4426
1 40.9198 37.4905 66.1192
1 40.9646 39.1316 68.4672
1 39.534 36.6817 68.4536
1 42.346 35.0382 66.1047
1 43.8389 37.5167 66.1457
1 43.8247 39.1346 68.5414
1 42.3715 36.5923 68.4458
1 45.2093 35.0105 66.1939
1 46.6592 37.4512 66.1497
1 46.7466 39.1035 68.4638
1 45.2298 36.6592 68.5287
1 48.073 34.9558 66.1662
1 49.5466 37.4634 66.1486
1 49.564 39.1449 68.4479
1 48.0828 36.5826 68.489
1 35.2556 42.4868 66.0637
1 35.2699 44.1157 68.4309
1 36.73 39.9804 66.0581
1 38.1102 42.4745 66.0847
1 38.1303 44.1586 68.4163
1 36.6601 41.6075 68.4589
1 39.5371 40.0403 66.1377
1 41.0107 42.5461 66.0653
1 40.9978 44.1513 68.4506
1 39.5184 41.6659 68.4564
1 42.4324 40.0476 66.0131
1 43.9032 42.5209 66.0628
1 43.8755 44.1596 68.4174
1 42.3985 41.6209 68.4243
1 45.3079 39.9906 66.0929
1 46.7374 42.5387 66.0682
1 46.7412 44.197 68.4471
1 45.2675 41.6595 68.477
1 48.121 40.0119 66.1349
1 49.6141 42.4788 66.1243
1 49.5828 44.1529 68.4943
1 48.1392 41.6679 68.4686
1 32.4389 47.5392 66.0854
1 32.4389 49.1237 68.3872
1 33.8735 45.0107 66.06
1 35.2982 47.5149 66.0504
1 35.2378 49.1434 68.4716
1 33.822 46.6435 68.3789
1 36.6828 44.9768 66.0558
1 38.1628 47.5416 66.0761
1 38.1603 49.1585 68.494
1 36.7321 46.6389 68.4153
1 39.535 45.0034 66.0801
1 41.0298 47.496 66.0657
1 41.0293 49.1678 68.4787
1 39.6013 46.6792 68.4141
1 42.4439 45.0192 66.0639
1 43.8951 47.5273 66.0885
1 43.8867 49.1629 68.504
1 42.4429 46.6394 68.4285
1 45.3049 45.0368 66.0384
1 46.7353 47.5288 66.1274
1 46.7386 49.1536 68.5524
1 45.3042 46.6859 68.4883
1 48.2007 45.03 66.0616
1 49.6032 47.4908 66.1085
1 49.5798 49.1285 68.5173
1 48.1986 46.6635 68.4778
1 33.8949 49.9963 66.12
1 36.742 50.0332 66.1251
1 39.6595 49.9781 66.0305
1 42.486 50.0487 66.094
1 45.3424 50.0062 66.1476
1 48.2386 50.0176 66.1641
1 43.8463 34.1792 73.2313
1 46.7275 32.5915 70.8418
1 46.7455 34.0882 73.2199
1 49.579 32.5931 70.8903
1 49.6388 34.0903 73.258
1 38.1275 37.4544 70.8222
1 38.0865 39.1105 73.1644
1 40.9529 37.454 70.8385
1 40.9575 39.1211 73.2465
1 39.5675 36.6606 73.2343
1 42.3971 35.0179 70.8623
1 43.8194 37.4915 70.9108
1 43.8604 39.0993 73.2087
1 42.4129 36.6127 73.2324
1 45.2687 35.0383 70.8574
1 46.7072 37.5048 70.8307
1 46.7256 39.1107 73.206
1 45.3156 36.6209 73.2145
1 48.1079 34.9894 70.8533
1 49.539 37.5121 70.8332
1 49.6241 39.1063 73.1485
1 48.1413 36.6187 73.2142
1 35.2607 42.4357 70.75
1 35.1897 44.1213 73.1513
1 36.6904 39.9378 70.8314
1 38.0776 42.4458 70.7901
1 38.1228 44.1968 73.1787
1 36.6758 41.6513 73.1083
1 39.4766 39.9607 70.8304
1 40.9497 42.451 70.7573
1 40.952 44.1315 73.1451
1 39.5057 41.6433 73.1272
1 42.3672 39.9753 70.8327
1 43.804 42.4824 70.7892
1 43.8944 44.1311 73.2199
1 42.4059 41.6179 73.1757
1 45.2822 39.9637 70.7849
1 46.6571 42.5218 70.8422
1 46.7442 44.1295 73.227
1 45.2941 41.6184 73.2024
1 48.1321 40.0423 70.8311
1 49.5842 42.5526 70.8122
1 49.6338 44.1118 73.2149
1 48.1379 41.6441 73.1912
1 32.4385 47.5263 70.7406
1 32.375 49.1295 73.1717
1 33.8166 44.9671 70.7645
1 35.2649 47.4676 70.7611
1 35.1926 49.114 73.1391
1 33.7746 46.6305 73.1234
1 36.6741 44.9792 70.8141
1 38.1456 47.4619 70.7845
1 38.148 49.109 73.1649
1 36.6848 46.6363 73.1471
1 39.5353 45.0041 70.8088
1 41.0309 47.4442 70.839
1 40.9853 49.1469 73.1596
1 39.5682 46.6384 73.2025
1 42.4509 45.0133 70.8596
1 43.9042 47.5166 70.8827
1 43.9029 49.1216 73.2411
1 42.4486 46.6044 73.2455
1 45.2527 44.9935 70.8229
1 46.7446 47.4583 70.9094
1 46.8086 49.1228 73.2765
1 45.3186 46.6451 73.2794
1 48.1234 45.0336 70.8631
1 49.6279 47.4559 70.9031
1 49.6194 49.0969 73.318
1 48.2285 46.6312 73.3295
1 33.7581 50.0077 70.7852
1 36.663 49.9908 70.8897
1 39.5518 49.9631 70.8337
1 42.4729 49.9709 70.8153
1 45.364 49.98 70.8978
1 48.1829 49.9331 70.8914
1 43.9266 34.0961 77.9678
1 46.7012 32.5199 75.5703
1 46.8237 34.0574 77.9117
1 49.4728 32.5377 75.5882
1 49.6624 34.0824 77.8841
1 38.1172 37.5292 75.5643
1 38.0094 39.0816 77.8927
1 40.9469 37.3811 75.6463
1 40.9303 39.0922 77.9241
1 39.5066 36.706 77.9545
1 42.4433 34.9688 75.6361
1 43.851 37.4329 75.576
1 43.8454 39.0735 77.9611
1 42.478 36.5258 77.9484
1 45.2484 34.92 75.6104
1 46.7431 37.4856 75.6027
1 46.7416 39.1034 77.9874
1 45.3798 36.5697 77.9886
1 48.1641 35.0059 75.5596
1 49.6316 37.4291 75.5519
1 49.6689 39.1052 77.8905
1 48.2172 36.6221 77.892
1 35.2959 42.5197 75.5186
1 35.1603 44.1278 77.8371
1 36.7231 40.0571 75.5037
1 38.1436 42.493 75.5358
1 38.0986 44.1261 77.8578