5538
Atoms. Timestep: 100000
1 43.4929 34.1379 7.37548
1 44.9693 31.8169 7.40489
1 46.4205 34.1425 7.25569
1 47.7648 31.7394 7.3089
1 49.2997 34.0249 7.12834
1 36.3799 36.8571 7.33955
1 37.787 39.1339 7.3444
1 40.543 37.4722 4.94497
1 40.6568 39.1467 7.26678
1 39.1385 36.7305 7.27932
1 42.0379 35.0959 5.03945
1 43.5237 37.3436 5.03565
1 43.5357 39.0684 7.29344
1 42.0073 36.5319 7.36792
1 44.9262 34.8783 4.97351
1 46.3863 37.3181 4.85016
1 46.3982 39.0775 7.22433
1 45.0612 36.5924 7.30886
1 47.8967 34.904 4.88932
1 49.3113 37.3416 4.89273
1 49.2921 38.9737 7.19169
1 47.9282 36.5378 7.20431
1 33.4789 41.5811 7.52211
1 34.8818 44.0771 7.37649
1 34.9769 39.1695 7.51098
1 37.829 42.4326 5.14162
1 37.8034 44.0729 7.41281
1 36.3281 41.6683 7.36979
1 39.1725 39.9306 5.01578
1 40.5991 42.4167 4.89749
1 40.6933 44.093 7.27584
1 39.2348 41.6166 7.37261
1 42.061 39.9766 4.96877
1 43.5616 42.4446 4.91201
1 43.5596 44.1367 7.23624
1 42.1263 41.5848 7.26414
1 45.046 39.8382 4.77904
1 46.3218 42.2961 4.83195
1 46.4836 44.0012 7.19595
1 44.9506 41.5095 7.21814
1 47.7679 39.8752 4.85506
1 49.2597 42.28 4.87166
1 49.2934 44.0171 7.22349
1 47.8348 41.5746 7.24923
1 30.6412 46.3849 7.79515
1 31.9444 49.162 7.5467
1 32.1466 44.0499 7.49726
1 34.8537 47.4177 5.13296
1 34.8289 49.0909 7.51593
1 33.4135 46.6323 7.46521
1 36.2865 45.0033 5.11867
1 37.7521 47.4257 4.9369
1 37.77 49.1052 7.34849
1 36.3871 46.4721 7.36553
1 39.1685 44.9253 4.98812
1 40.6209 47.3761 4.8907
1 40.7163 49.158 7.19473
1 39.2067 46.6281 7.35077
1 42.0176 44.9663 4.91989
1 43.6241 47.3078 4.95306
1 43.5808 49.0031 7.26886
1 42.0543 46.6055 7.30127
1 44.9917 44.8307 4.95171
1 46.491 47.3775 4.88108
1 46.4418 48.9927 7.17784
1 45.0397 46.4576 7.27744
1 47.84 44.8093 4.81377
1 49.3113 47.4434 4.78997
1 49.2884 49.1041 7.15246
1 47.9003 46.559 7.13571
1 33.4562 49.859 5.19259
1 36.2485 49.9353 5.091
1 39.1593 49.9638 4.94143
1 42.1035 49.9352 4.94542
1 44.9555 49.8195 5.00197
1 47.8499 49.9482 4.82484
1 43.4877 34.139 12.0501
1 46.2959 32.4446 9.74043
1 46.3272 34.1149 11.997
1 49.2138 32.4328 9.55252
1 49.2794 34.0126 11.9242
1 37.7109 37.4345 9.77016
1 37.808 39.0522 12.0756
1 40.6213 37.3699 9.68908
1 40.6255 38.9969 11.9757
1 39.2503 36.4707 12.0514
1 41.9695 34.9386 9.70875
1 43.5363 37.4321 9.6499
1 43.4595 39.0528 11.9688
1 42.0488 36.5747 12.1318
1 44.9048 34.9913 9.64326
1 46.4433 37.4177 9.64653
1 46.3738 39.041 12.0005
1 44.9111 36.5781 12.0223
1 47.7887 35.0238 9.55817
1 49.3154 37.338 9.51737
1 49.3609 39.067 11.8811
1 47.8082 36.5259 11.9485
1 34.9099 42.3786 9.82347
1 34.9043 44.1435 12.1022
1 36.3886 39.9638 9.72675
1 37.7704 42.4183 9.77726
1 37.7766 44.0504 12.1381
1 36.3375 41.6055 12.0788
1 39.1753 39.8996 9.70248
1 40.6337 42.4626 9.65164
1 40.6924 44.0409 12.019
1 39.2281 41.481 12.0885
1 42.0234 39.9159 9.65743
1 43.5129 42.432 9.58604
1 43.5869 44.046 11.9694
1 42.1365 41.5094 12.0204
1 44.9092 39.8869 9.60925
1 46.4453 42.3678 9.62775
1 46.4394 44.043 12.0165
1 44.9173 41.4956 12.0112
1 47.8519 39.8786 9.53482
1 49.2777 42.383 9.64235
1 49.3172 44.0435 12.0025
1 47.8524 41.5322 12.0134
1 32.1036 47.4709 9.77296
1 32.0917 49.0133 12.0992
1 33.3914 44.9406 9.70296
1 34.9512 47.44 9.7747
1 34.9011 49.1092 12.0934
1 33.5902 46.6214 12.0698
1 36.2993 44.9802 9.80124
1 37.8451 47.406 9.65513
1 37.8362 49.1338 12.1824
1 36.392 46.5784 12.1157
1 39.1203 45.0087 9.76057
1 40.6363 47.4766 9.63516
1 40.6374 49.0622 12.0365
1 39.1478 46.6171 12.1481
1 42.0733 44.9478 9.59579
1 43.5669 47.3739 9.75568
1 43.5603 49.0848 12.0728
1 42.0263 46.5289 12.0769
1 44.9828 44.9095 9.57408
1 46.4394 47.3402 9.57802
1 46.4549 49.0974 11.9817
1 45.0182 46.6201 12.0224
1 47.8848 44.969 9.52377
1 49.2784 47.4566 9.53626
1 49.3853 49.0605 11.8593
1 47.9974 46.5537 11.928
1 33.4133 50.0494 9.81469
1 36.391 49.9949 9.86815
1 39.2021 49.874 9.66366
1 42.139 49.9166 9.67138
1 45.082 49.8939 9.64011
1 47.8906 49.8647 9.52559
1 43.6096 34.0923 16.6917
1 46.5595 32.4737 14.3021
1 46.4405 33.9712 16.6085
1 49.3249 32.476 14.2777
1 49.348 33.8812 16.6247
1 37.8226 37.4309 14.3396
1 37.8489 38.9282 16.8095
1 40.6754 37.416 14.4148
1 40.7354 39.0031 16.7509
1 39.3317 36.5887 16.7606
1 42.025 34.9132 14.3808
1 43.5457 37.3117 14.3375
1 43.6272 39.0028 16.7318
1 42.1102 36.524 16.7341
1 44.936 34.8565 14.289
1 46.4067 37.4279 14.3417
1 46.5011 38.9375 16.7355
1 45.0915 36.4438 16.7153
1 47.8066 34.9092 14.2207
1 49.3015 37.3013 14.2623
1 49.4226 39.0128 16.64
1 47.9722 36.5413 16.6939
1 34.9653 42.505 14.4409
1 34.8275 44.0888 16.8028
1 36.3126 39.8624 14.3371
1 37.8402 42.3204 14.3359
1 37.7765 43.9539 16.7625
1 36.4097 41.426 16.7194
1 39.268 39.838 14.4161
1 40.6311 42.3526 14.3796
1 40.6359 44.0322 16.7179
1 39.3046 41.4486 16.7085
1 42.1224 39.8959 14.374
1 43.6112 42.4143 14.258
1 43.6073 44.0274 16.7805
1 42.2277 41.5263 16.6634
1 45.0237 39.8636 14.328
1 46.5377 42.3991 14.4048
1 46.48 43.9512 16.8226
1 44.9625 41.5017 16.6757
1 48.0454 39.8379 14.2908
1 49.3379 42.3301 14.2952
1 49.3792 44.0442 16.6993
1 47.939 41.4761 16.6951
1 32.1229 47.4781 14.4687
1 32.1305 49.1133 16.8156
1 33.568 45.0654 14.4267
1 34.9146 47.4999 14.4764
1 34.7903 49.0799 16.7856
1 33.3973 46.5208 16.8103
1 36.3929 44.9754 14.4771
1 37.8719 47.4366 14.5197
1 37.709 49.0931 16.8009
1 36.3617 46.6176 16.7787
1 39.2307 44.8556 14.4541
1 40.6945 47.3344 14.4062
1 40.6723 49.0307 16.8341
1 39.2621 46.5268 16.8362
1 42.0961 44.9135 14.4027
1 43.576 47.4143 14.3953
1 43.5481 49.0802 16.7683
1 42.1581 46.5083 16.7237
1 45.0613 44.9388 14.3924
1 46.5673 47.4378 14.3208
1 46.5101 49.0884 16.7285
1 45.0056 46.5984 16.6607
1 47.8956 44.9243 14.4033
1 49.3514 47.4137 14.2672
1 49.4346 49.0804 16.5779
1 47.916 46.4987 16.6706
1 33.406 49.9488 14.4662
1 36.3327 49.9682 14.5283
1 39.2729 49.8605 14.5518
1 42.0929 49.9098 14.3568
1 45.0136 49.9159 14.3625
1 47.9482 49.938 14.1901
1 43.6482 34.0043 21.425
1 46.7354 32.3475 18.8341
1 46.5315 33.8655 21.3509
1 49.4164 32.3398 19.0953
1 49.3922 34.0082 21.2775
1 37.8433 37.2 19.217
1 37.7084 38.8623 21.5149
1 40.6937 37.3317 19.1441
1 40.6843 38.9741 21.4959
1 39.3402 36.5335 21.5078
1 42.2797 34.8497 19.0987
1 43.6224 37.2994 19.061
1 43.5422 38.9527 21.4982
1 42.1897 36.4662 21.4295
1 45.108 34.7319 19.085
1 46.4232 37.2118 19.0927
1 46.5491 38.9948 21.4077
1 45.0139 36.4471 21.474
1 47.9545 34.8452 18.9404
1 49.4112 37.3569 19.0185
1 49.4007 39.0248 21.4765
1 48.0049 36.5019 21.4206
1 35.0243 42.3072 19.0378
1 34.8622 43.979 21.5892
1 36.4372 39.7804 19.2442
1 37.7603 42.2532 19.14
1 37.7489 44.0247 21.4456
1 36.3481 41.4688 21.4965
1 39.2684 39.698 19.2052
1 40.6205 42.3135 19.0669
1 40.5991 44.0438 21.3885
1 39.1843 41.4502 21.4828
1 42.1182 39.7786 19.1942
1 43.5314 42.2458 19.1149
1 43.545 43.9054 21.4516
1 42.1498 41.4487 21.4153
1 44.9135 39.7817 19.1125
1 46.4207 42.2599 19.0985
1 46.5979 43.9823 21.4503
1 45.0938 41.4077 21.4346
1 47.9135 39.8141 19.0786
1 49.3406 42.3691 18.9322
1 49.5739 43.9916 21.3211
1 48.0862 41.5736 21.3704
1 32.0074 47.4908 19.0937
1 32.0572 48.9998 21.5585
1 33.4979 44.8727 19.2042
1 34.884 47.42 19.148
1 34.9678 49.0162 21.5111
1 33.4186 46.5658 21.5701
1 36.3058 44.8437 19.1449
1 37.8036 47.3534 19.1243
1 37.8444 49.0087 21.4448
1 36.3271 46.5037 21.5215
1 39.114 44.8024 19.0609
1 40.7197 47.3553 19.1371
1 40.7766 49.0612 21.5266
1 39.2404 46.4602 21.4816
1 42.0142 44.8606 19.0602
1 43.5477 47.3341 19.0663
1 43.6454 49.0198 21.4334
1 42.1039 46.4805 21.4216
1 44.9771 44.7442 19.2082
1 46.4341 47.3172 19.0227
1 46.4912 49.0216 21.3586
1 45.024 46.4588 21.4377
1 47.9741 44.8479 19.1009
1 49.2891 47.366 18.9781
1 49.4575 49.0179 21.3726
1 47.9308 46.5162 21.3414
1 33.4847 49.9176 19.1557
1 36.2957 49.8801 19.1535
1 39.235 49.8994 19.1282
1 42.1349 49.908 19.1708
1 45.0111 49.8005 19.0582
1 47.9768 49.8683 19.0744
1 43.7721 34.0933 26.0939
1 46.7116 32.3522 23.6908
1 46.5257 33.8733 26.0811
1 49.5313 32.3854 23.6094
1 49.4691 33.9933 26.0731
1 38.0255 37.2396 23.9003
1 37.9824 38.9738 26.1597
1 40.8072 37.2555 23.8663
1 40.8498 38.9195 26.2363
1 39.4279 36.4931 26.2391
1 42.3436 34.8302 23.8552
1 43.7346 37.2065 23.8052
1 43.7694 38.9494 26.1476
1 42.2993 36.4811 26.1722
1 45.1666 34.751 23.7832
1 46.6161 37.3309 23.7513
1 46.6359 38.8831 26.1411
1 45.204 36.3374 26.1601
1 48.0219 34.7771 23.7709
1 49.3973 37.3084 23.7596
1 49.4521 38.9287 26.1631
1 48.0265 36.3978 26.1314
1 34.927 42.3565 23.973
1 34.9614 44.0308 26.3052
1 36.4307 39.8737 23.8948
1 37.7778 42.316 23.8505
1 37.859 43.9557 26.235
1 36.3994 41.4606 26.2118
1 39.2989 39.7487 23.8258
1 40.7504 42.2925 23.825
1 40.8415 44.0631 26.1181
1 39.4048 41.4758 26.203
1 42.2596 39.7961 23.8291
1 43.6164 42.2826 23.7462
1 43.7601 43.914 26.1142
1 42.3005 41.4835 26.1939
1 45.1236 39.778 23.7752
1 46.552 42.2922 23.7353
1 46.5586 43.9082 26.0828
1 45.1532 41.4537 26.0504
1 47.944 39.7971 23.8233
1 49.5328 42.2082 23.685
1 49.4294 43.99 26.0567
1 48.0312 41.4281 26.0977
1 32.0317 47.396 23.9124
1 32.1636 49.1182 26.2666
1 33.5069 44.9079 23.8857
1 34.8411 47.4173 23.8837
1 34.9482 49.0339 26.1846
1 33.4069 46.5689 26.1815
1 36.3833 44.897 23.9298
1 37.8172 47.3759 23.8379
1 37.8563 49.0696 26.2317
1 36.3521 46.5393 26.1625
1 39.2419 44.7524 23.8339
1 40.6862 47.2583 23.7899
1 40.6987 49.037 26.2383
1 39.297 46.537 26.2367
1 42.2447 44.777 23.7479
1 43.6421 47.3241 23.8235
1 43.6259 49.1052 26.2185
1 42.3076 46.4837 26.1143
1 45.097 44.7877 23.7477
1 46.6606 47.3932 23.7368
1 46.5658 49.052 26.099
1 45.162 46.4019 26.1033
1 48.1324 44.787 23.6567
1 49.4841 47.3866 23.6404
1 49.561 48.9883 25.9616
1 48.083 46.5327 26.1625
1 33.4304 49.8212 23.8366
1 36.3762 49.8382 23.8814
1 39.3129 49.8893 23.7664
1 42.2672 49.8817 23.8462
1 45.0567 49.8817 23.7546
1 48.0358 49.9421 23.7668
1 49.5253 32.3957 28.3805
1 52.4246 32.3654 28.3862
1 38.0393 37.3703 28.5678
1 40.7977 37.257 28.5308
1 42.2879 34.8737 28.4605
1 43.6763 37.2684 28.5532
1 45.1745 34.6792 28.4387
1 46.521 37.2856 28.5027
1 47.9899 34.8112 28.4538
1 49.4274 37.2343 28.4813
1 35.1157 42.3934 28.4834
1 36.6297 39.8174 28.4873
1 37.9126 42.349 28.5397
1 39.3878 39.78 28.5781
1 40.7772 42.3653 28.4984
1 42.3499 39.8135 28.5149
1 43.7599 42.344 28.4474
1 45.202 39.8773 28.5507
1 46.5685 42.4316 28.4989
1 48.0258 39.7925 28.4645
1 49.4333 42.2245 28.4782
1 32.1514 47.4528 28.5045
1 33.5616 44.9893 28.6341
1 34.9952 47.343 28.5751
1 36.4819 44.8707 28.5635
1 37.9432 47.3358 28.5699
1 39.3504 44.8386 28.5116
1 40.8621 47.3575 28.4824
1 42.3306 44.8336 28.4178
1 43.7367 47.3977 28.5246
1 45.1372 44.9478 28.477
1 46.6044 47.4372 28.3626
1 48.1547 44.9109 28.4634
1 49.5531 47.4752 28.5047
1 33.589 50.0146 28.6842
1 36.4489 49.8663 28.5597
1 39.3255 49.7456 28.5737
1 42.2814 49.9065 28.4861
1 45.1527 49.9714 28.4525
1 48.099 49.9421 28.3407
1 43.7964 33.9639 30.8355
1 46.6827 33.9474 30.8301
1 49.5495 33.922 30.7254
1 37.9629 39.0738 30.9035
1 40.9002 39.0402 30.863
1 39.4259 36.6497 30.9133
1 43.84 38.9949 30.8571
1 42.2784 36.483 30.8919
1 46.6457 38.9091 30.8736
1 45.2198 36.3878 30.8398
1 49.6048 39.0053 30.7867
1 48.1419 36.4727 30.795
1 35.0566 44.0234 30.9531
1 37.9313 44.086 30.7943
1 36.426 41.4741 30.843
1 40.8859 44.0525 30.8301
1 39.3273 41.5888 30.8279
1 43.8095 44.042 30.8745
1 42.3422 41.491 30.7595
1 46.649 44.1002 30.8205
1 45.2836 41.4412 30.8545
1 49.5375 43.9601 30.8053
1 48.1505 41.42 30.853
1 32.1657 49.1335 31.0771
1 35.017 49.0709 30.8909
1 33.5815 46.5313 30.9889
1 37.9137 48.9522 30.9348
1 36.5065 46.5321 30.8772
1 40.8989 48.9866 30.8454
1 39.4568 46.4391 30.8895
1 43.8507 49.0498 30.8484
1 42.4087 46.5228 30.8427
1 46.681 49.0103 30.7737
1 45.2752 46.5428 30.8537
1 49.5144 49.0269 30.7977
1 48.0813 46.566 30.7708
1 43.9412 33.9183 35.5208
1 46.7345 32.4155 33.1216
1 46.7967 33.8811 35.5927
1 49.6574 32.391 33.046
1 49.6532 33.9068 35.4585
1 38.0216 37.2545 33.2727
1 37.9591 38.9253 35.6151
1 40.9725 37.1845 33.2701
1 40.9748 38.8319 35.5948
1 39.4604 36.5643 35.7196
1 42.4583 34.7461 33.1694
1 43.8598 37.2269 33.1692
1 43.8962 38.8795 35.447
1 42.4611 36.4333 35.5788
1 45.308 34.7374 33.2151
1 46.7416 37.2693 33.254
1 46.7369 38.9753 35.5861
1 45.358 36.4286 35.5766
1 48.1814 34.7933 33.1753
1 49.7061 37.2175 33.2147
1 49.6461 38.981 35.4394
1 48.2506 36.5125 35.5028
1 35.2357 42.3954 33.2855
1 35.1256 43.8535 35.6648
1 36.5775 39.8555 33.3767
1 37.9897 42.2797 33.238
1 38.0674 43.9873 35.63
1 36.6407 41.5158 35.6628
1 39.4673 39.74 33.2654
1 40.9658 42.2364 33.0954
1 41.0195 43.8474 35.5086
1 39.4945 41.3938 35.541
1 42.36 39.7671 33.198
1 43.8229 42.3141 33.2033
1 43.9025 43.9768 35.5571
1 42.4401 41.3607 35.575
1 45.2539 39.7728 33.1934
1 46.7688 42.338 33.1675
1 46.7215 43.9546 35.5111
1 45.3267 41.4586 35.467
1 48.1379 39.7496 33.1906
1 49.6215 42.2892 33.1245
1 49.6376 43.9905 35.4366
1 48.2746 41.5272 35.4903
1 32.3417 47.3216 33.3395
1 32.3613 48.8962 35.6626
1 33.7172 44.8254 33.315
1 35.2349 47.3423 33.2937
1 35.1691 49.0091 35.6062
1 33.8323 46.4639 35.5973
1 36.578 44.8307 33.2358
1 38.075 47.3092 33.325
1 37.9951 48.9951 35.6092
1 36.6889 46.3977 35.6572
1 39.5153 44.7106 33.3272
1 40.9085 47.2384 33.1991
1 40.915 49.0878 35.5795
1 39.511 46.4993 35.5324
1 42.3758 44.7569 33.2089
1 43.89 47.3391 33.1857
1 43.8087 48.9519 35.5933
1 42.4103 46.5142 35.4759
1 45.2381 44.8322 33.1715
1 46.7606 47.3669 33.078
1 46.741 49.0187 35.4818
1 45.3105 46.48 35.4648
1 48.1966 44.7769 33.0986
1 49.6989 47.2863 33.1226
1 49.6548 49 35.4505
1 48.1455 46.5077 35.4188
1 33.7259 49.8912 33.2784
1 36.5631 49.8777 33.2062
1 39.4163 49.8024 33.2005
1 42.341 49.8039 33.2633
1 45.3162 49.8856 33.1631
1 48.1967 49.8826 33.1187
1 43.9392 33.9658 40.1401
1 47.1086 32.3429 37.8262
1 46.8449 33.9512 40.1124
1 49.8993 32.4059 37.9298
1 49.6923 33.9245 40.2524
1 38.0464 37.2984 38.005
1 38.061 38.9481 40.3641
1 41.0021 37.2403 37.9281
1 40.9454 38.924 40.2461
1 39.4465 36.4754 40.268
1 42.4618 34.6803 37.869
1 43.9431 37.1579 37.8432
1 43.8868 38.8768 40.1815
1 42.4203 36.427 40.1982
1 45.3368 34.6077 37.845
1 46.7811 37.2513 37.8478
1 46.7759 38.9953 40.1444
1 45.2311 36.4332 40.1907
1 48.3263 34.8607 37.7799
1 49.7093 37.2683 37.7962
1 49.6769 39.0101 40.1421
1 48.2577 36.4559 40.1472
1 35.1844 42.208 38.0191
1 35.1976 44.0214 40.3174
1 36.6134 39.7426 38.0485
1 38.1082 42.3343 37.9521
1 38.0723 44.0178 40.2765
1 36.5779 41.5275 40.3044
1 39.46 39.7164 37.9048
1 41.0031 42.3203 37.8486
1 41.0196 43.9852 40.239
1 39.5664 41.5138 40.1851
1 42.424 39.6764 37.8476
1 43.8149 42.3571 37.8555
1 43.9147 44 40.2235
1 42.4319 41.3524 40.1442
1 45.2427 39.7815 37.8001
1 46.7078 42.2547 37.8686
1 46.7881 44.0309 40.1642
1 45.267 41.5627 40.2714
1 48.1821 39.8145 37.8535
1 49.6564 42.3623 37.8461
1 49.6386 44.0587 40.2016
1 48.1527 41.5282 40.1245
1 32.4237 47.3501 38.0082
1 32.4098 48.9983 40.3484
1 33.7329 44.8597 37.9509
1 35.1732 47.3529 37.8997
1 35.1879 49.0061 40.2793
1 33.7602 46.5058 40.3123
1 36.6604 44.6979 37.9835
1 38.0821 47.2726 37.9306
1 38.0993 48.9574 40.2232
1 36.5765 46.51 40.3097
1 39.5749 44.8491 37.816
1 40.9475 47.3356 37.8366
1 40.9729 49.0655 40.2395
1 39.5056 46.4088 40.2955
1 42.4346 44.8584 37.8398
1 43.9359 47.3264 37.8247
1 43.9408 49.001 40.1975
1 42.45 46.5303 40.2772
1 45.3333 44.8685 37.7638
1 46.8045 47.3684 37.826
1 46.8718 49.0353 40.1762
1 45.3573 46.4769 40.1768
1 48.1397 44.814 37.772
1 49.6561 47.273 37.8134
1 49.7307 49.0546 40.1601
1 48.1964 46.5303 40.224
1 33.7811 49.8559 37.9647
1 36.6556 49.7805 37.9211
1 39.4509 49.7927 37.8522
1 42.4311 49.8395 37.9993
1 45.3778 49.8969 37.8258
1 48.2596 49.8254 37.8431
1 46.9147 32.4478 42.5264
1 49.6282 32.2423 42.4996
1 38.2021 37.3338 42.7314
1 40.9365 37.2978 42.5765
1 42.6869 34.8327 42.5647
1 43.8623 37.3379 42.5688
1 45.4562 34.8015 42.6591
1 46.7516 37.3145 42.4991
1 48.3064 34.7772 42.5036
1 49.7038 37.3193 42.501
1 35.3054 42.369 42.6932
1 36.7178 39.8266 42.6371
1 38.0663 42.3523 42.6637
1 39.521 39.8197 42.6909
1 40.9851 42.3116 42.5516
1 42.4109 39.8447 42.538
1 43.8158 42.2998 42.4866
1 45.4284 39.7733 42.53
1 46.7876 42.2489 42.5681
1 48.2004 39.7903 42.5178
1 49.7019 42.3141 42.5436
1 32.3291 47.2925 42.722
1 33.8038 44.8828 42.6154
1 35.1663 47.3535 42.633
1 36.657 44.8665 42.5853
1 38.1335 47.3045 42.6182
1 39.5726 44.7373 42.6445
1 41.0087 47.3334 42.57
1 42.521 44.8424 42.511
1 43.8821 47.2957 42.5807
1 45.3054 44.758 42.6362
1 46.7909 47.2615 42.4139
1 48.2139 44.8029 42.5826
1 49.7225 47.3459 42.5021
1 33.7232 49.8649 42.6752
1 36.6263 49.8463 42.5821
1 39.4741 49.8471 42.5781
1 42.4308 49.8568 42.5277
1 45.4312 49.817 42.5512
1 48.3399 49.8485 42.4831
1 43.9534 33.9686 45.0218
1 46.8873 33.8126 44.9923
1 49.7204 33.9307 44.9188
1 38.0604 38.9592 44.989
1 41.0573 38.8907 44.9295
1 39.5322 36.5658 44.9851
1 43.8987 38.9323 44.8615
1 42.5078 36.3438 44.9235
1 46.7796 38.9114 44.901
1 45.4138 36.45 44.9515
1 49.656 38.8211 44.8816
1 48.1877 36.4754 44.8464
1 35.1694 43.9571 44.9396
1 38.0957 43.99 44.9302
1 36.5672 41.4308 45.0162
1 41.1045 43.9609 44.9593
1 39.5639 41.4991 44.9648
1 43.9427 43.9308 44.986
1 42.4456 41.3978 44.957
1 46.7906 43.9595 44.9065
1 45.3767 41.4569 44.8421
1 49.7115 43.9 44.8524
1 48.28 41.4238 44.8135
1 32.4111 48.962 45.043
1 35.1915 49.0226 45.0034
1 33.7365 46.4613 44.9449
1 38.096 49.0665 45.0301
1 36.645 46.5257 44.9791
1 41.0735 49.1051 44.9178
1 39.5866 46.5461 44.8907
1 43.9126 49.1101 44.8838
1 42.565 46.5381 44.9317
1 46.8711 49.0056 44.8881
1 45.3688 46.5282 45.0104
1 49.7523 48.9308 44.8232
1 48.2074 46.5278 44.8607
1 44.0141 33.9399 49.6271
1 46.7459 32.3217 47.3844
1 46.9612 33.8731 49.6975
1 49.5394 32.2844 47.2543
1 49.809 33.7776 49.6945
1 38.1264 37.3386 47.3422
1 38.2011 39.0425 49.6491
1 41.0517 37.1717 47.2833
1 41.043 38.8511 49.6221
1 39.6683 36.4223 49.6222
1 42.4317 34.707 47.3186
1 43.8945 37.2262 47.2421
1 43.9586 38.8833 49.5825
1 42.5182 36.3772 49.6204
1 45.3597 34.7135 47.2758
1 46.8736 37.1804 47.2991
1 46.8679 38.899 49.5843
1 45.4252 36.3401 49.621
1 48.2423 34.6997 47.2786
1 49.7389 37.1863 47.3002
1 49.7294 38.9688 49.5435
1 48.2835 36.3679 49.631
1 35.1642 42.3153 47.2263
1 35.2389 43.9226 49.685
1 36.6671 39.7533 47.3807
1 38.0974 42.2762 47.2818
1 38.1432 43.9137 49.6123
1 36.6492 41.4734 49.6671
1 39.6229 39.7283 47.235
1 40.9938 42.3645 47.2451
1 41.0582 44.0191 49.6088
1 39.5563 41.5184 49.6134
1 42.5318 39.7946 47.2573
1 43.9012 42.2784 47.2693
1 43.9671 43.982 49.5987
1 42.5052 41.4755 49.6279
1 45.4628 39.7691 47.2643
1 46.8287 42.3529 47.2033
1 46.8318 44.0086 49.6175
1 45.3449 41.5068 49.5488
1 48.3303 39.7508 47.2584
1 49.7063 42.3148 47.2837
1 49.7173 43.9852 49.6032
1 48.2521 41.4871 49.5591
1 32.3316 47.3905 47.3407
1 32.4276 48.9437 49.7124
1 33.7915 44.7696 47.3602
1 35.1373 47.3427 47.3332
1 35.2152 48.9313 49.7284
1 33.7664 46.4333 49.7109
1 36.6134 44.7444 47.2788
1 38.0434 47.3293 47.3144
1 38.0622 48.9501 49.6609
1 36.6051 46.4295 49.6239
1 39.5058 44.8352 47.2851
1 41.0222 47.2992 47.3135
1 41.0274 48.9987 49.6364
1 39.5592 46.4148 49.7183
1 42.4646 44.8779 47.2098
1 43.9145 47.4401 47.3066
1 43.9314 49.1007 49.625
1 42.4065 46.4936 49.5972
1 45.3507 44.8696 47.2879
1 46.8367 47.3251 47.3368
1 46.8479 48.98 49.67
1 45.3434 46.5225 49.617
1 48.2606 44.8259 47.2846
1 49.7545 47.3389 47.227
1 49.8037 48.9296 49.4861
1 48.3277 46.4598 49.5878
1 33.7363 49.9335 47.2991
1 36.5739 49.7676 47.3478
1 39.5443 49.8111 47.2253
1 42.4005 49.8843 47.282
1 45.4977 49.8541 47.3066
1 48.3784 49.809 47.1915
1 44.05 33.9473 54.2637
1 46.8984 32.3465 52.0032
1 46.9725 33.787 54.4165
1 49.7373 32.3147 52.1659
1 49.7976 33.7517 54.5101
1 38.2727 37.1814 51.9791
1 38.1624 38.8861 54.3724
1 41.1339 37.2658 52.0108
1 41.1634 38.8605 54.4132
1 39.6507 36.5835 54.4223
1 42.5881 34.6935 51.9732
1 44.028 37.1884 51.9653
1 44.0353 38.9622 54.3075
1 42.5915 36.3568 54.3656
1 45.4653 34.7421 52.0881
1 46.9353 37.2744 52.0299
1 46.9299 38.8901 54.3674
1 45.4957 36.3452 54.3984
1 48.3193 34.7471 52.0442
1 49.7401 37.2287 51.9912
1 49.7303 38.9108 54.3169
1 48.3589 36.3328 54.369
1 35.228 42.2473 52.06
1 35.2699 43.9908 54.3551
1 36.8429 39.8031 51.9957
1 38.1247 42.2897 52.0224
1 38.0853 43.8316 54.4322
1 36.6662 41.3392 54.3541
1 39.7564 39.7466 51.9534
1 41.0206 42.2572 51.8973
1 41.0384 43.9203 54.2353
1 39.5776 41.4054 54.3227
1 42.6376 39.7975 51.9608
1 44.0279 42.2977 51.9336
1 43.9764 43.9246 54.2983
1 42.5011 41.3985 54.2735
1 45.4677 39.7941 51.953
1 46.9338 42.3521 51.8885
1 46.9245 43.998 54.3215
1 45.4539 41.5117 54.3038
1 48.3495 39.8232 51.9422
1 49.7901 42.3428 51.9759
1 49.7798 43.9101 54.3613
1 48.2318 41.4464 54.3435
1 32.4413 47.3018 52.0713
1 32.2927 48.8828 54.4105
1 33.9124 44.7494 52.0887
1 35.2369 47.2847 52.0475
1 35.1829 49.1013 54.3771
1 33.8317 46.4958 54.4375
1 36.7383 44.7408 51.9408
1 38.1128 47.3192 52.016
1 38.1267 48.9651 54.3688
1 36.7044 46.4919 54.2695
1 39.6046 44.816 52.0165
1 41.0194 47.2344 52.0174
1 41.075 48.9612 54.3085
1 39.5764 46.4088 54.3714
1 42.5908 44.7028 51.951
1 43.9394 47.2621 51.9795
1 43.98 48.9199 54.3937
1 42.5269 46.3928 54.3508
1 45.5093 44.7955 51.9584
1 46.8346 47.3465 52.0259
1 46.8817 48.9299 54.3336
1 45.381 46.4728 54.3252
1 48.3714 44.8269 51.9904
1 49.7679 47.2363 51.9018
1 49.7057 48.8909 54.2013
1 48.3836 46.426 54.3361
1 33.6882 49.7623 52.0755
1 36.6459 49.771 52.013
1 39.5126 49.7299 52.0129
1 42.4619 49.7575 51.983
1 45.3776 49.8594 52.0449
1 48.3492 49.7257 51.9069
1 44.0685 33.9216 59.0714
1 47.0193 32.3739 56.8034
1 46.9015 33.9181 59.1323
1 49.7855 32.2206 57.0195
1 49.7187 33.8738 59.1968
1 38.2748 37.2523 56.6601
1 38.1678 38.9054 59.1643
1 41.168 37.1552 56.8046
1 41.1291 38.9844 59.0505
1 39.6559 36.6 59.0727
1 42.7757 34.7222 56.7417
1 44.0458 37.3281 56.7199
1 44.0021 38.9528 59.0945
1 42.5869 36.3983 59.0366
1 45.486 34.7018 56.7989
1 46.8779 37.2241 56.7392
1 46.8557 38.9713 59.0462
1 45.4033 36.3709 59.1685
1 48.4513 34.7732 56.6791
1 49.7472 37.2766 56.6969
1 49.7213 38.971 59.0906
1 48.2933 36.4141 59.1305
1 35.2993 42.2855 56.7418
1 35.2964 43.9721 59.0262
1 36.6915 39.6741 56.7188
1 38.062 42.2343 56.7329
1 38.1967 43.8912 59.0039
1 36.6437 41.3412 59.1492
1 39.5626 39.7306 56.7227
1 41.0149 42.2534 56.698
1 41.0405 43.8939 58.9867
1 39.6233 41.4106 59.0491
1 42.5298 39.7335 56.7052
1 43.9158 42.3197 56.6329
1 44.0129 43.9249 58.9956
1 42.5966 41.4267 59.0265
1 45.4538 39.8294 56.5984
1 46.7583 42.3457 56.6891
1 46.9217 43.966 59.1091
1 45.4183 41.4482 59.0288
1 48.3737 39.8722 56.6596
1 49.777 42.3639 56.7228
1 49.7893 44.0524 59.0263
1 48.2908 41.4504 59.1288
1 32.3629 47.3232 56.7329
1 32.4041 48.9406 59.1798
1 33.9361 44.7828 56.7055
1 35.1304 47.3263 56.7359
1 35.2904 48.9151 59.0266
1 33.6759 46.4042 59.0716
1 36.7149 44.8235 56.7158
1 38.1263 47.2335 56.6782
1 38.1445 48.9513 59.0951
1 36.707 46.496 58.9512
1 39.568 44.7914 56.622
1 41.0787 47.2238 56.6969
1 41.0899 48.901 59.0156
1 39.513 46.4188 58.9956
1 42.5227 44.7854 56.6851
1 43.9802 47.288 56.6692
1 43.9845 48.9483 59.0032
1 42.54 46.379 59.0013
1 45.3374 44.8193 56.6964
1 46.8995 47.3555 56.659
1 46.8846 49.0593 59.0368
1 45.4657 46.4612 59.104
1 48.29 44.8272 56.7691
1 49.7638 47.313 56.7598
1 49.8165 49.0258 59.0262
1 48.3039 46.4949 59.1593
1 33.7796 49.7757 56.7088
1 36.6757 49.7983 56.7565
1 39.5582 49.7267 56.6661
1 42.4904 49.8122 56.7014
1 45.4405 49.7888 56.6935
1 48.3212 49.7998 56.6429
1 44.0165 33.974 63.9683
1 46.7884 32.3318 61.505
1 46.9074 33.8967 63.8594
1 49.6555 32.2639 61.5645
1 49.8186 33.8929 63.8947
1 38.1739 37.358 61.4871
1 38.1335 38.9579 63.8471
1 41.0198 37.1654 61.4417
1 41.0573 38.9053 63.8214
1 39.6289 36.5116 63.8811
1 42.5817 34.8519 61.3949
1 43.9746 37.2068 61.4981
1 43.9648 38.8179 63.8326
1 42.4722 36.3781 63.8013
1 45.4056 34.802 61.4836
1 46.8132 37.231 61.494
1 46.8737 38.9545 63.8003
1 45.4195 36.2996 63.8479
1 48.3515 34.6979 61.5277
1 49.7024 37.281 61.4448
1 49.7978 38.995 63.7608
1 48.3201 36.4508 63.8225
1 35.3203 42.3052 61.3541
1 35.2348 44.0516 63.6968
1 36.8254 39.7949 61.4749
1 38.1874 42.2925 61.3186
1 38.1774 43.9408 63.8049
1 36.6673 41.6118 63.6954
1 39.6533 39.7422 61.4105
1 41.0698 42.2334 61.3842
1 41.0174 43.9533 63.7371
1 39.5682 41.425 63.7518
1 42.5367 39.7502 61.4221
1 43.868 42.2077 61.4264
1 43.961 43.8512 63.7644
1 42.5206 41.3936 63.739
1 45.4596 39.7216 61.4804
1 46.9274 42.2787 61.4504
1 46.8409 43.911 63.8204
1 45.4194 41.442 63.7603
1 48.2615 39.6927 61.4086
1 49.8186 42.1893 61.3848
1 49.8082 43.9448 63.701
1 48.4554 41.4432 63.7898
1 32.2878 47.2552 61.5005
1 32.3729 49.0632 63.6328
1 33.7545 44.7792 61.4222
1 35.2141 47.2634 61.3025
1 35.2671 48.9699 63.6495
1 33.859 46.5746 63.7222
1 36.7026 44.7594 61.3429
1 38.1899 47.2466 61.3845
1 38.2181 48.9698 63.6223
1 36.7199 46.4968 63.7158
1 39.609 44.7169 61.3299
1 41.0395 47.2444 61.4331
1 41.086 49.0189 63.7519
1 39.6574 46.3945 63.6969
1 42.515 44.7527 61.4273
1 43.994 47.3791 61.4145
1 43.9363 49.053 63.6761
1 42.5491 46.4706 63.7354
1 45.3385 44.7282 61.3719
1 46.8825 47.3597 61.3904
1 46.8896 49.0042 63.761
1 45.4619 46.3921 63.6679
1 48.2676 44.8248 61.4684
1 49.8081 47.3614 61.3644
1 49.7949 49.0599 63.6259
1 48.3714 46.5545 63.6905
1 33.838 49.7217 61.3284
1 36.7189 49.7518 61.3698
1 39.6145 49.8076 61.3419
1 42.5291 49.8571 61.3105
1 45.3699 49.8745 61.3485
1 48.3317 49.9303 61.3551
1 43.9813 34.0575 68.6621
1 49.8206 32.3083 66.1911
1 46.7274 33.933 68.6712
1 52.5289 32.3008 66.3035
1 49.7042 33.8405 68.6178
1 38.1737 37.3475 66.164
1 38.0631 38.956 68.5072
1 40.9766 37.2757 66.1198
1 40.9185 38.9818 68.4731
1 39.5746 36.4052 68.5283
1 42.4025 34.8366 66.2275
1 43.846 37.189 66.1934
1 44.0048 38.9384 68.4809
1 42.4318 36.4901 68.547
1 45.4355 34.7295 66.2699
1 46.7785 37.2293 66.2158
1 46.8787 38.9852 68.4446
1 45.4477 36.5052 68.5625
1 48.3275 34.7194 66.2752
1 49.6765 37.2903 66.2205
1 49.7785 38.9733 68.4992
1 48.3614 36.4577 68.5601
1 35.3475 42.4507 66.0159
1 35.2169 44.0514 68.5138
1 36.7987 39.9126 66.1376
1 38.1511 42.3019 66.1238
1 38.064 43.9939 68.3738
1 36.6825 41.5296 68.416
1 39.5865 39.7879 66.1996
1 41.1274 42.2253 66.0946
1 40.9928 43.8947 68.3914
1 39.505 41.4472 68.5648
1 42.5013 39.6969 66.2107
1 43.9561 42.2247 66.0426
1 43.9481 44.0474 68.2808
1 42.4683 41.4274 68.4737
1 45.3732 39.8053 66.0882
1 46.7996 42.4264 66.1062
1 46.8824 44.0686 68.4565
1 45.388 41.5363 68.4653
1 48.2795 39.8885 66.155
1 49.7989 42.3542 66.0372
1 49.8001 43.9635 68.2861
1 48.33 41.5232 68.4743
1 32.5297 47.3878 66.0577
1 32.4171 48.8662 68.3697
1 33.8621 44.8562 66.0463
1 35.3332 47.3472 66.0648
1 35.3165 49.021 68.3812
1 33.791 46.4703 68.4511
1 36.7206 44.8507 66.0275
1 38.2514 47.2861 66.0308
1 38.183 49.0852 68.3869
1 36.7028 46.5177 68.4041
1 39.5838 44.7662 66.0909
1 41.0646 47.2909 65.9833
1 41.0388 48.9409 68.3551
1 39.5927 46.5281 68.3912
1 42.5457 44.8065 66.096
1 43.9117 47.3698 66.0084
1 43.9698 49.0262 68.3354
1 42.5383 46.5651 68.367
1 45.4584 44.9207 66.0644
1 46.7992 47.3562 66.0653
1 46.8841 49.0203 68.3938
1 45.4228 46.587 68.3344
1 48.3123 44.9318 66.0045
1 49.8464 47.3654 66.03
1 49.8027 48.9997 68.3802
1 48.3091 46.5283 68.4066
1 33.7902 49.8477 66.0336
1 36.7083 49.8154 66.001
1 39.5394 49.8433 66.0507
1 42.4783 49.8384 66.0435
1 45.3545 49.8291 66.0177
1 48.3399 49.807 66.0168
1 44.0348 34.1287 73.3324
1 46.9741 32.3466 70.9464
1 46.9019 33.9535 73.2985
1 50.0008 32.4192 70.9816
1 49.7402 34.1237 73.3632
1 38.2233 37.3702 70.8194
1 38.0485 38.933 73.2704
1 41.0713 37.2914 70.9275
1 40.9854 38.9926 73.2841
1 39.5779 36.6043 73.255
1 42.6734 34.8133 71.0311
1 43.9738 37.2621 70.9845
1 43.9223 39.0196 73.2082
1 42.4439 36.4654 73.2818
1 45.4794 34.7307 70.9974
1 46.8113 37.2801 70.9082
1 46.8828 39.0366 73.2364
1 45.4008 36.5494 73.299
1 48.3048 34.8215 70.9426
1 49.7908 37.3048 70.8349
1 49.7046 38.9986 73.2259
1 48.3065 36.506 73.2719
1 35.2181 42.2856 70.8806
1 35.1982 44.1026 73.1795
1 36.6822 39.8934 70.8223
1 38.1402 42.3138 70.8692
1 38.0367 44.0481 73.1498
1 36.5739 41.4426 73.2178
1 39.5494 39.8173 70.9272
1 40.9959 42.3029 70.7764
1 40.9917 44.0695 73.1477
1 39.5238 41.518 73.1644
1 42.4346 39.7996 70.7902
1 43.8623 42.2517 70.7994
1 43.9645 43.9249 73.1008
1 42.4188 41.4818 73.1123
1 45.4016 39.7278 70.879
1 46.8393 42.3526 70.7583
1 46.8929 44 73.0979
1 45.3704 41.4868 73.0674
1 48.2961 39.7787 70.8291
1 49.7462 42.393 70.7133
1 49.7906 44.0391 73.1862
1 48.3915 41.5845 73.1514
1 32.3613 47.3668 70.6875
1 32.3196 48.9665 73.056
1 33.7878 44.8574 70.799
1 35.1724 47.3793 70.7564
1 35.1638 49.0497 73.0479
1 33.7656 46.5138 73.0701
1 36.5617 44.7813 70.757
1 38.0884 47.3197 70.7748
1 38.1525 49.0652 73.0763
1 36.6744 46.5559 73.0348
1 39.5525 44.8217 70.7225
1 41.0438 47.3802 70.7152
1 41.0065 49.1226 73.0566
1 39.5715 46.5875 73.0053
1 42.461 44.8115 70.6663
1 43.9864 47.273 70.7679
1 43.8812 49.041 72.9927
1 42.4067 46.5214 73.0717
1 45.3338 44.7817 70.7028
1 46.8125 47.3836 70.7351
1 46.8222 49.0309 73.1622
1 45.3896 46.4604 73.0719
1 48.3342 44.8791 70.75
1 49.7343 47.473 70.7931
1 49.7536 49.1055 73.1292
1 48.2578 46.6321 73.0642
1 33.6829 49.834 70.6998
1 36.6591 49.8538 70.6483
1 39.5684 49.8276 70.7363
1 42.4777 49.8968 70.6578
1 45.3685 49.9295 70.7612
1 48.2296 49.9818 70.7953
1 43.9626 34.2144 78.059
1 47.0243 32.6058 75.7619
1 46.8947 34.1091 78.0304
1 49.7777 32.4235 75.7438
1 49.6841 33.9965 77.9946
1 38.1838 37.4739 75.6715
1 38.1464 39.1202 77.9266
1 41.0074 37.3689 75.6063
1 41.0629 39.0641 77.9762
1 39.5915 36.7041 78.0045
1 42.3744 34.9365 75.78
1 43.9158 37.3848 75.6862
1 43.969 39.17 77.9359
1 42.4891 36.5856 78.0511
1 45.4211 34.9379 75.6572
1 46.7628 37.4689 75.6415
1 46.9125 39.133 77.9485
1 45.4625 36.6679 78.0551
1 48.283 35.0241 75.7119
1 49.6595 37.4693 75.7477
1 49.7364 39.1528 77.9559
1 48.3019 36.5826 77.9753
1 35.3556 42.4858 75.5423
1 35.3282 44.0914 77.8318
1 36.7212 39.9207 75.6252
1 38.1551 42.4413 75.5
1 38.2227 44.1999 77.7955
1 36.7828 41.6414 77.9131