5538
Atoms. Timestep: 20000
1 43.911 34.0927 7.06839
1 46.7808 32.4491 4.9227
1 46.8781 34.0537 7.14045
1 48.4425 31.7004 7.04087
1 49.7627 34.1217 7.17762
1 36.7797 36.9062 6.8424
1 38.2732 39.2118 6.83737
1 41.1165 37.526 4.62777
1 41.1526 39.0942 6.93602
1 39.5738 36.7385 6.77567
1 40.9988 34.4888 7.27511
1 44.0078 37.3287 4.6436
1 44.019 39.0282 6.98915
1 42.5694 36.6139 6.92401
1 45.4217 34.878 4.81499
1 46.851 37.3296 4.79411
1 46.8708 39.0526 7.01222
1 45.3667 36.4958 7.10711
1 48.2528 34.8391 4.7863
1 49.6985 37.3287 4.82733
1 49.7622 38.9928 7.11075
1 48.2681 36.5431 7.12529
1 34.0682 41.741 6.65449
1 35.3872 44.149 6.82128
1 35.4891 39.3269 6.63542
1 38.4184 42.5246 4.67148
1 38.262 44.1178 6.9656
1 36.8623 41.7205 6.8517
1 39.739 39.9733 4.59691
1 41.2182 42.393 4.5765
1 41.1121 43.9916 6.92266
1 39.7105 41.5951 6.92929
1 42.5683 39.8811 4.59916
1 44.0671 42.3393 4.58709
1 44.031 43.996 6.93927
1 42.6042 41.5547 6.96915
1 45.451 39.8119 4.62935
1 46.8912 42.2525 4.6082
1 46.8835 43.9859 6.95901
1 45.4362 41.4784 6.98228
1 48.3058 39.7905 4.6643
1 49.7335 42.3142 4.68066
1 49.7978 43.9391 6.96826
1 48.3264 41.5332 7.03108
1 31.1674 46.5686 6.91399
1 32.4911 49.0299 6.90232
1 32.5616 44.1163 6.68006
1 35.4413 47.3744 4.52934
1 35.3318 49.0417 6.91301
1 33.9096 46.5938 6.8351
1 36.8694 44.905 4.59437
1 38.3056 47.3998 4.59261
1 38.2053 49.0066 6.95289
1 36.7731 46.5851 6.93683
1 39.7381 44.9338 4.60567
1 41.1445 47.3651 4.6417
1 41.0558 49.0152 6.96764
1 39.65 46.6016 6.97793
1 42.6095 44.8813 4.61032
1 44.0489 47.2738 4.5395
1 43.9595 48.9718 6.92539
1 42.5251 46.4859 6.94774
1 45.4421 44.7237 4.55928
1 46.8553 47.2775 4.58572
1 46.816 48.9683 6.91042
1 45.433 46.4427 6.91825
1 48.3214 44.7681 4.57156
1 49.746 47.3184 4.60833
1 49.6788 48.9216 6.94427
1 48.3363 46.4406 6.91551
1 34.0041 49.785 4.5931
1 36.8139 49.8732 4.55432
1 39.6997 49.9003 4.59892
1 42.5618 49.8328 4.6226
1 45.3661 49.7943 4.56347
1 48.2517 49.7976 4.5406
1 43.8938 33.9544 11.8013
1 46.9373 32.3055 9.35663
1 46.7825 33.9123 11.8096
1 49.7807 32.3213 9.42054
1 49.6774 33.8519 11.8617
1 38.1548 37.5041 9.151
1 38.1153 39.0501 11.5836
1 41.0783 37.3145 9.22596
1 40.9912 39.0403 11.6984
1 39.7223 36.6522 11.5659
1 42.6124 34.8507 9.43549
1 43.9687 37.39 9.41476
1 43.8456 38.9795 11.7298
1 42.5156 36.498 11.7308
1 45.4125 34.7964 9.52665
1 46.7994 37.2838 9.44351
1 46.7464 38.913 11.8214
1 45.3455 36.4296 11.8092
1 48.2675 34.8193 9.46708
1 49.7245 37.3182 9.46689
1 49.7016 38.9148 11.8786
1 48.2418 36.3975 11.7947
1 35.308 42.4845 9.1303
1 35.1617 44.1056 11.5751
1 36.7365 39.9899 9.14997
1 38.2164 42.4331 9.25096
1 38.1335 44.0549 11.6278
1 36.672 41.6027 11.569
1 39.6321 39.8828 9.23454
1 41.1414 42.338 9.30955
1 41.0298 44.0046 11.721
1 39.6026 41.5036 11.6944
1 42.5151 39.8165 9.37367
1 43.9848 42.3368 9.35465
1 43.8967 43.9536 11.7221
1 42.4879 41.5339 11.7186
1 45.3892 39.8054 9.35646
1 46.8736 42.2863 9.40331
1 46.7895 43.9589 11.6737
1 45.3959 41.4803 11.7063
1 48.2276 39.7617 9.48638
1 49.7366 42.3012 9.40815
1 49.6511 43.9442 11.798
1 48.311 41.4328 11.7752
1 32.3981 47.4049 9.21837
1 32.44 49.0795 11.6323
1 33.8617 44.9446 9.10005
1 35.2587 47.3553 9.33494
1 35.2568 49.0933 11.704
1 33.7717 46.551 11.57
1 36.7636 44.8876 9.27853
1 38.1575 47.3648 9.37584
1 38.0806 49.0161 11.7336
1 36.6456 46.5222 11.7151
1 39.6612 44.9208 9.33517
1 41.0914 47.3629 9.33025
1 40.9773 49.0037 11.7623
1 39.5501 46.5153 11.7321
1 42.5209 44.8882 9.33657
1 43.9924 47.3084 9.28945
1 43.9052 48.976 11.6603
1 42.4183 46.5227 11.7261
1 45.3917 44.8111 9.30347
1 46.8673 47.291 9.28601
1 46.7922 48.9568 11.6724
1 45.3435 46.4522 11.6716
1 48.2691 44.7941 9.35122
1 49.7362 47.2974 9.3427
1 49.6649 49.0099 11.6815
1 48.2304 46.4456 11.6631
1 33.846 49.8367 9.27922
1 36.7258 49.8423 9.32905
1 39.5881 49.8079 9.38765
1 42.5152 49.816 9.31562
1 45.394 49.8121 9.29988
1 48.221 49.8106 9.29289
1 43.9179 33.9935 16.5163
1 46.8159 32.3583 14.1184
1 46.7347 33.8437 16.5099
1 49.6278 32.2659 14.2161
1 49.6362 33.8444 16.5777
1 38.2907 37.3518 13.9806
1 38.0438 39 16.3388
1 41.0689 37.3259 14.0048
1 40.9234 38.9694 16.429
1 39.5396 36.5657 16.4291
1 42.4847 34.8464 14.1665
1 43.9005 37.3268 14.1396
1 43.8078 38.9578 16.5058
1 42.3551 36.4126 16.55
1 45.3625 34.73 14.1471
1 46.7888 37.231 14.1826
1 46.7543 38.8794 16.6029
1 45.3015 36.4052 16.4993
1 48.2215 34.7932 14.1794
1 49.6277 37.2719 14.214
1 49.6361 38.9236 16.5663
1 48.1668 36.3542 16.6068
1 35.3238 42.4183 13.9458
1 35.0684 43.9652 16.353
1 36.7896 39.8709 13.9319
1 38.1505 42.3269 13.9862
1 38.0288 44.007 16.3651
1 36.6019 41.4642 16.3304
1 39.5746 39.8121 13.9999
1 41.0118 42.3574 14.0748
1 40.9097 43.9697 16.4718
1 39.4928 41.4551 16.4205
1 42.3981 39.858 14.0403
1 43.8868 42.3119 14.1186
1 43.8244 43.9878 16.5156
1 42.4035 41.4744 16.4815
1 45.3101 39.7501 14.1334
1 46.7809 42.2399 14.0598
1 46.6592 43.9291 16.4017
1 45.2383 41.4254 16.4467
1 48.1944 39.7574 14.1671
1 49.6304 42.2592 14.1391
1 49.5483 43.9649 16.4552
1 48.1172 41.4058 16.5428
1 32.3383 47.292 13.857
1 32.3114 48.934 16.2787
1 33.7683 44.8627 13.8848
1 35.1291 47.3618 14.0026
1 35.1487 49.0452 16.4066
1 33.6428 46.4874 16.3309
1 36.6186 44.8983 14.0184
1 38.0804 47.3872 14.0935
1 38.0369 48.9696 16.4833
1 36.5338 46.4854 16.4056
1 39.5257 44.8479 14.0766
1 40.9245 47.37 14.109
1 40.9337 49.0073 16.4615
1 39.4631 46.5236 16.4168
1 42.4271 44.8785 14.127
1 43.8794 47.3756 14.0766
1 43.8339 49.0154 16.3897
1 42.4033 46.532 16.4259
1 45.3071 44.8632 14.0625
1 46.7759 47.3487 14.0365
1 46.7011 49.0256 16.3749
1 45.2778 46.5107 16.3925
1 48.1833 44.7697 14.0948
1 49.5972 47.2868 14.0417
1 49.5792 48.945 16.4401
1 48.0994 46.4673 16.3851
1 33.6689 49.8033 14.0363
1 36.6389 49.8364 14.1197
1 39.5293 49.902 14.0984
1 42.3993 49.8448 14.0667
1 45.2912 49.8412 14.0407
1 48.2144 49.8632 14.0509
1 43.8606 33.973 21.3013
1 46.8404 32.3975 18.8134
1 46.7723 33.8401 21.3323
1 49.6803 32.3048 18.9462
1 49.6162 33.9007 21.2652
1 38.0957 37.3651 18.737
1 38.0436 38.9559 21.1219
1 40.9278 37.3102 18.8407
1 40.9119 38.8815 21.1809
1 39.5024 36.487 21.1402
1 42.4142 34.7872 18.8572
1 43.8207 37.2492 18.8747
1 43.804 38.9647 21.1863
1 42.3716 36.4146 21.194
1 45.3038 34.7622 18.8874
1 46.7818 37.2294 18.9215
1 46.7067 39.0015 21.2664
1 45.2758 36.4362 21.2829
1 48.2201 34.7521 18.9416
1 49.668 37.3116 18.9481
1 49.5952 39.0046 21.285
1 48.1714 36.4421 21.2651
1 35.1691 42.3836 18.7517
1 35.1477 43.9412 21.1268
1 36.6656 39.8377 18.6816
1 37.9967 42.3225 18.7119
1 38.0128 43.9856 21.0914
1 36.5448 41.5158 21.1076
1 39.5298 39.8148 18.7753
1 40.8689 42.3095 18.8339
1 40.8918 43.9527 21.1384
1 39.4475 41.4286 21.1659
1 42.3635 39.7936 18.8305
1 43.8062 42.3118 18.7915
1 43.7336 43.9894 21.1469
1 42.3555 41.4394 21.155
1 45.2452 39.7615 18.868
1 46.6543 42.2455 18.8526
1 46.6365 43.9344 21.1467
1 45.1817 41.4472 21.236
1 48.1817 39.7939 18.9328
1 49.6136 42.2657 18.8373
1 49.5382 43.9975 21.2177
1 48.1068 41.5012 21.2275
1 32.2832 47.3828 18.7495
1 32.2196 48.967 21.1096
1 33.6966 44.9052 18.6988
1 35.0614 47.3319 18.7367
1 35.0175 49.0414 21.1627
1 33.6119 46.4811 21.1296
1 36.5585 44.7992 18.7407
1 37.9395 47.3209 18.8078
1 37.9431 49.0297 21.1709
1 36.5027 46.5299 21.1442
1 39.4445 44.8426 18.7883
1 40.9144 47.3797 18.8136
1 40.848 49.0525 21.146
1 39.3632 46.5454 21.1442
1 42.3728 44.814 18.7923
1 43.8144 47.3176 18.8393
1 43.7905 49.0455 21.2414
1 42.3072 46.522 21.1477
1 45.3069 44.8355 18.7183
1 46.6871 47.3567 18.8027
1 46.6247 48.9685 21.1603
1 45.1712 46.4518 21.1701
1 48.106 44.7771 18.8197
1 49.5394 47.2971 18.8102
1 49.5914 48.9805 21.1586
1 48.1041 46.4584 21.1987
1 33.5981 49.8303 18.8013
1 36.5272 49.8108 18.8371
1 39.3802 49.8663 18.8176
1 42.3791 49.8624 18.7981
1 45.2184 49.8123 18.7424
1 48.1444 49.814 18.8117
1 43.7862 33.9942 25.9537
1 46.7506 32.3792 23.7129
1 46.7427 33.9788 26.0265
1 49.487 32.3483 23.6561
1 49.5897 33.9312 26.0049
1 38.0551 37.4478 23.4837
1 37.9237 38.9724 25.9253
1 40.9038 37.2196 23.5227
1 40.8753 38.9535 25.9046
1 39.4035 36.574 25.8779
1 42.4123 34.7866 23.5417
1 43.7893 37.2838 23.5286
1 43.7511 38.9757 25.8978
1 42.3079 36.4633 25.9341
1 45.2606 34.7677 23.6727
1 46.6965 37.2746 23.5929
1 46.662 38.96 25.9738
1 45.2367 36.4676 25.9625
1 48.1832 34.8416 23.6505
1 49.6073 37.31 23.5644
1 49.5716 38.9293 25.9587
1 48.1914 36.4976 26.0044
1 35.15 42.3563 23.4965
1 35.0507 44.0024 25.869
1 36.7011 39.8792 23.4409
1 38.0095 42.3761 23.4815
1 37.9636 43.9856 25.9018
1 36.5246 41.4574 25.8885
1 39.5273 39.7893 23.4845
1 40.8777 42.2898 23.535
1 40.8868 43.9588 25.8446
1 39.401 41.4657 25.8548
1 42.3727 39.7863 23.5137
1 43.7995 42.2909 23.5149
1 43.754 43.9884 25.9077
1 42.3019 41.4588 25.8995
1 45.2464 39.7871 23.58
1 46.6145 42.2784 23.5794
1 46.6405 43.9885 25.9553
1 45.1852 41.4409 25.9191
1 48.1396 39.8445 23.6152
1 49.5384 42.321 23.6114
1 49.5847 43.9731 25.9672
1 48.1204 41.4747 25.9528
1 32.3206 47.3358 23.5188
1 32.2639 48.9562 25.9756
1 33.7536 44.8294 23.4714
1 35.0662 47.3211 23.5498
1 35.0037 49.041 25.9144
1 33.5817 46.44 25.8944
1 36.5878 44.8262 23.4839
1 37.933 47.2871 23.5103
1 37.9406 49.0041 25.9104
1 36.5021 46.526 25.8874
1 39.4809 44.7974 23.495
1 40.8759 47.3633 23.474
1 40.85 49.0235 25.8796
1 39.3938 46.5157 25.8335
1 42.3869 44.8299 23.561
1 43.7242 47.3149 23.5218
1 43.7567 49.0456 25.847
1 42.2566 46.4857 25.8286
1 45.222 44.8466 23.5211
1 46.6118 47.3351 23.5298
1 46.5789 49.0042 25.9029
1 45.1318 46.4921 25.9235
1 48.1119 44.7845 23.6417
1 49.5045 47.3424 23.5679
1 49.5309 48.9897 25.8741
1 48.0848 46.4832 25.9538
1 33.6036 49.8486 23.5613
1 36.5365 49.8291 23.52
1 39.3955 49.8121 23.5349
1 42.3189 49.8578 23.5279
1 45.2276 49.9025 23.5334
1 48.1022 49.8428 23.5341
1 49.6351 32.4714 28.4509
1 52.4141 32.3657 28.3416
1 38.0301 37.4356 28.2592
1 40.8068 37.3126 28.2196
1 42.3463 34.846 28.2973
1 43.7281 37.3036 28.2815
1 45.2514 34.8097 28.3646
1 46.6302 37.3355 28.3017
1 48.1124 34.8414 28.377
1 49.4989 37.2824 28.3947
1 35.086 42.3577 28.2635
1 36.5247 39.905 28.3242
1 37.9521 42.3623 28.241
1 39.4209 39.875 28.265
1 40.8231 42.342 28.2381
1 42.2816 39.805 28.2826
1 43.7655 42.3467 28.3101
1 45.1931 39.7647 28.3275
1 46.6376 42.2844 28.3042
1 48.0817 39.7917 28.3255
1 49.5777 42.3134 28.3523
1 32.31 47.4158 28.3491
1 33.6377 44.914 28.2683
1 35.0606 47.3318 28.2761
1 36.5026 44.7952 28.2368
1 37.9164 47.343 28.2321
1 39.4101 44.8593 28.2228
1 40.8159 47.3514 28.2192
1 42.3175 44.8186 28.2732
1 43.717 47.382 28.1942
1 45.2102 44.853 28.2719
1 46.6343 47.3576 28.2485
1 48.1317 44.8169 28.2868
1 49.5628 47.3455 28.2818
1 33.6281 49.814 28.3368
1 36.5066 49.8548 28.3303
1 39.3674 49.8605 28.2471
1 42.2721 49.8415 28.2396
1 45.1266 49.8937 28.2319
1 48.0715 49.809 28.1899
1 43.7719 34.0407 30.7436
1 46.6417 33.9661 30.7697
1 49.4958 34.0202 30.8094
1 37.848 39.0334 30.6708
1 40.8088 39.0129 30.5777
1 39.3736 36.6614 30.6256
1 43.7057 38.9944 30.6257
1 42.2752 36.5035 30.6896
1 46.5733 39.0155 30.7238
1 45.2011 36.5 30.6857
1 49.5112 39.0228 30.7706
1 48.0563 36.5153 30.7739
1 35.0229 43.9877 30.644
1 37.929 43.9878 30.6338
1 36.4523 41.5326 30.6324
1 40.8591 43.9822 30.6116
1 39.3437 41.4968 30.6272
1 43.7422 44.0065 30.6371
1 42.2678 41.5015 30.6629
1 46.6297 44.0282 30.6102
1 45.1272 41.5221 30.6528
1 49.5364 43.9713 30.6891
1 48.0357 41.4764 30.7477
1 32.2083 49.0129 30.6528
1 35.0397 49.0188 30.6814
1 33.6538 46.4768 30.6891
1 37.9151 49.0234 30.6622
1 36.505 46.5137 30.5957
1 40.8079 49.0561 30.5996
1 39.3909 46.4777 30.5667
1 43.7017 49.0744 30.5734
1 42.2848 46.5331 30.5752
1 46.5954 49.0493 30.5554
1 45.1467 46.5678 30.6229
1 49.5324 49.0275 30.5658
1 48.0525 46.5268 30.5763
1 43.7474 34.0989 35.4146
1 46.4742 32.488 33.1375
1 46.6135 34.0152 35.5134
1 49.2976 32.4475 33.098
1 49.5076 33.9071 35.4403
1 37.9917 37.402 33.0044
1 37.9511 39.0667 35.3565
1 40.8097 37.3171 33.0252
1 40.8431 39.0256 35.3908
1 39.4441 36.6206 35.4413
1 42.2956 34.9262 33.0521
1 43.6882 37.3935 33.0342
1 43.7257 39.0358 35.4092
1 42.3097 36.5171 35.4629
1 45.1256 34.9437 33.0618
1 46.6116 37.4315 33.117
1 46.5683 39.0542 35.4663
1 45.1396 36.5357 35.421
1 47.9751 34.8909 33.1155
1 49.4875 37.3792 33.091
1 49.499 39.0378 35.4613
1 48.069 36.4933 35.4771
1 35.1394 42.3778 33.0029
1 35.0494 43.9832 35.3566
1 36.5623 39.9134 33.0491
1 37.9904 42.3757 32.9466
1 37.9997 44.0102 35.3142
1 36.4716 41.525 35.4022
1 39.4239 39.8422 32.9955
1 40.88 42.361 32.9961
1 40.8483 44.0669 35.3355
1 39.3847 41.5391 35.3454
1 42.2629 39.8521 33.0112
1 43.6927 42.4156 33.0195
1 43.731 44.1001 35.388
1 42.2952 41.518 35.3729
1 45.1599 39.8881 33.0386
1 46.6402 42.3618 33.0517
1 46.5898 44.0088 35.4201
1 45.1383 41.5134 35.4166
1 48.077 39.9062 33.1169
1 49.5478 42.3698 33.0918
1 49.5529 44.0846 35.4021
1 48.0276 41.5615 35.4273
1 32.3117 47.418 33.0413
1 32.2764 48.9304 35.3974
1 33.6606 44.8235 33.0064
1 35.077 47.3279 33.0374
1 35.0603 49.0114 35.4106
1 33.7247 46.4746 35.3742
1 36.497 44.8603 33.0297
1 37.936 47.4121 32.961
1 38.0175 49.044 35.3663
1 36.5631 46.5007 35.3763
1 39.387 44.893 32.9478
1 40.8375 47.4074 32.9762
1 40.8682 49.0351 35.3345
1 39.3739 46.5303 35.369
1 42.2792 44.8705 33.0096
1 43.7242 47.3923 32.9385
1 43.7108 49.0576 35.3318
1 42.2312 46.5638 35.3442
1 45.225 44.8387 32.9561
1 46.6101 47.3656 32.9404
1 46.6007 49.0486 35.2845
1 45.1529 46.5696 35.3842
1 48.0692 44.8831 33.0225
1 49.5309 47.4218 32.9987
1 49.5046 49.141 35.417
1 48.0604 46.557 35.3333
1 33.6513 49.9277 33.0708
1 36.4827 49.825 33.0625
1 39.3713 49.9358 32.9686
1 42.2777 49.9134 32.9615
1 45.1505 49.8818 32.8923
1 48.0611 49.8756 32.9788
1 43.8053 34.1797 40.2214
1 46.7742 32.5382 37.8756
1 46.6678 34.0375 40.1756
1 49.5673 32.4406 37.8773
1 49.5303 34.021 40.2159
1 37.9515 37.4129 37.7204
1 38.0183 39.0649 40.0467
1 40.8053 37.3461 37.8293
1 40.8547 39.0891 40.149
1 39.3527 36.6389 40.1385
1 42.3801 34.9132 37.8529
1 43.706 37.3792 37.8315
1 43.7039 39.0259 40.1429
1 42.2598 36.557 40.1905
1 45.2139 34.853 37.815
1 46.6092 37.3702 37.8008
1 46.6369 39.0624 40.1432
1 45.2025 36.5489 40.1977
1 48.1662 34.9151 37.859
1 49.5626 37.3886 37.8308
1 49.5763 39.0274 40.1635
1 48.102 36.5354 40.2364
1 35.0623 42.3974 37.7645
1 35.1022 44.0113 40.0925
1 36.516 39.8468 37.8034
1 37.9211 42.3016 37.7616
1 37.9966 44.0795 40.1313
1 36.5167 41.5249 40.167
1 39.4129 39.8523 37.7614
1 40.8281 42.3697 37.7531
1 40.8318 44.0234 40.1287
1 39.3966 41.5954 40.1127
1 42.2763 39.875 37.7243
1 43.7426 42.3587 37.7241
1 43.762 44.0735 40.1102
1 42.3091 41.5614 40.1579
1 45.1395 39.8369 37.7998
1 46.5965 42.3382 37.7612
1 46.629 44.045 40.0963
1 45.1761 41.5613 40.1508
1 48.0613 39.8281 37.789
1 49.4944 42.407 37.7746
1 49.5438 44.063 40.1066
1 48.1312 41.513 40.1621
1 32.3116 47.2932 37.7951
1 32.2562 48.8909 40.1104
1 33.7433 44.9005 37.7439
1 35.1263 47.3362 37.7833
1 35.1158 49.0526 40.1209
1 33.6956 46.4803 40.2035
1 36.4937 44.8124 37.7027
1 38.0084 47.3591 37.7991
1 37.9292 49.0644 40.1218
1 36.5877 46.5001 40.0736
1 39.3932 44.8745 37.7234
1 40.8643 47.4066 37.7878
1 40.8796 49.0671 40.1561
1 39.4229 46.5273 40.1461
1 42.3154 44.891 37.7532
1 43.7864 47.3928 37.7429
1 43.7578 49.0843 40.0814
1 42.3188 46.5417 40.1367
1 45.1901 44.8732 37.7615
1 46.68 47.399 37.7002
1 46.6314 49.078 40.0759
1 45.2085 46.5598 40.0712
1 48.0842 44.9051 37.7683
1 49.5389 47.3876 37.7348
1 49.537 49.0929 40.0856
1 48.1237 46.542 40.1359
1 33.5789 49.8491 37.7897
1 36.5737 49.8366 37.7191
1 39.4261 49.8834 37.7667
1 42.2686 49.8842 37.7134
1 45.1195 49.8594 37.6842
1 48.0512 49.9242 37.6905
1 46.808 32.5967 42.737
1 49.5512 32.5138 42.6276
1 37.9137 37.5004 42.4898
1 40.8051 37.3632 42.5319
1 42.3373 34.9603 42.5834
1 43.7552 37.3719 42.4829
1 45.2526 34.8855 42.5693
1 46.6314 37.4406 42.5164
1 48.1541 34.9586 42.521
1 49.6007 37.4088 42.5704
1 35.0838 42.4172 42.4476
1 36.5446 39.9361 42.4677
1 37.9367 42.4355 42.4995
1 39.3979 39.8927 42.4719
1 40.8977 42.4375 42.454
1 42.2623 39.8595 42.509
1 43.7563 42.4012 42.5277
1 45.1592 39.9228 42.4942
1 46.651 42.3936 42.4688
1 48.1263 39.8617 42.5158
1 49.5234 42.3954 42.5321
1 32.2437 47.3715 42.5471
1 33.5758 44.8604 42.4855
1 35.0635 47.3992 42.4768
1 36.4869 44.9212 42.4478
1 37.984 47.4726 42.4945
1 39.412 44.9122 42.5014
1 40.853 47.4051 42.5016
1 42.3174 44.9041 42.4867
1 43.8084 47.4352 42.4696
1 45.2374 44.957 42.5007
1 46.6466 47.3928 42.4438
1 48.0998 44.8899 42.4928
1 49.5432 47.4545 42.4955
1 33.6081 49.9184 42.4392
1 36.4822 49.9647 42.5087
1 39.3873 49.9202 42.4665
1 42.2728 49.9369 42.5183
1 45.1773 49.9183 42.4678
1 48.057 49.9489 42.475
1 43.8069 34.2005 44.954
1 46.6185 34.2471 44.91
1 49.4952 34.1358 44.9074
1 37.9233 39.114 44.8456
1 40.8098 39.1003 44.8825
1 39.3864 36.7318 44.8842
1 43.6599 39.0987 44.8873
1 42.2698 36.6012 44.8705
1 46.6054 39.1745 44.8793
1 45.2084 36.7192 44.9068
1 49.5612 39.1361 44.9268
1 48.0701 36.6759 44.8738
1 35.0315 44.1062 44.8243
1 37.9296 44.1059 44.8423
1 36.4768 41.5933 44.8176
1 40.8831 44.0736 44.8669
1 39.4131 41.6428 44.837
1 43.7743 44.1168 44.8563
1 42.3371 41.598 44.8431
1 46.6574 44.0895 44.8187
1 45.2284 41.6451 44.9318
1 49.5578 44.1565 44.8597
1 48.1406 41.6412 44.8714
1 32.2083 49.1002 44.8331
1 35.0655 49.1228 44.7674
1 33.6453 46.6294 44.8715
1 37.9736 49.1145 44.833
1 36.5387 46.6301 44.8673
1 40.8233 49.1192 44.8875
1 39.4198 46.6045 44.877
1 43.7417 49.1236 44.8824
1 42.3474 46.6258 44.8068
1 46.6637 49.1379 44.8329
1 45.2291 46.5914 44.8591
1 49.543 49.0646 44.8457
1 48.0578 46.6184 44.8147
1 43.8179 34.2198 49.6183
1 46.7199 32.6027 47.1988
1 46.664 34.1114 49.6091
1 49.5307 32.5443 47.2988
1 49.5337 34.1225 49.6095
1 38.012 37.5155 47.2267
1 37.9479 39.1442 49.5986
1 40.8183 37.3908 47.2574
1 40.85 39.1367 49.6157
1 39.4353 36.7239 49.6175
1 42.4096 34.946 47.3007
1 43.722 37.4465 47.2603
1 43.7618 39.0957 49.6008
1 42.3206 36.6341 49.664
1 45.2004 35.0427 47.2814
1 46.6385 37.5023 47.2666
1 46.639 39.1351 49.6251
1 45.2465 36.6211 49.6597
1 48.0974 35.0111 47.2813
1 49.6025 37.5095 47.2631
1 49.5752 39.0679 49.5701
1 48.139 36.6705 49.5757
1 35.1069 42.4952 47.1566
1 35.0128 44.1409 49.5418
1 36.5607 39.9649 47.2134
1 37.9243 42.4691 47.1618
1 37.8909 44.1567 49.5589
1 36.4911 41.6517 49.5936
1 39.3552 40.0093 47.2473
1 40.8783 42.5203 47.2225
1 40.8197 44.1718 49.6008
1 39.3861 41.6805 49.565
1 42.1966 39.9234 47.2545
1 43.7473 42.4566 47.224
1 43.7356 44.1365 49.5909
1 42.3087 41.6627 49.6319
1 45.1417 39.9809 47.2611
1 46.7084 42.4175 47.2042
1 46.6331 44.1324 49.6424
1 45.22 41.6124 49.6241
1 48.0613 39.9899 47.2469
1 49.5848 42.452 47.2391
1 49.5634 44.1225 49.6262
1 48.0968 41.6352 49.6264
1 32.1969 47.5334 47.1942
1 32.2225 49.1687 49.6467
1 33.64 45.0158 47.1821
1 35.0701 47.4462 47.2683
1 35.0582 49.159 49.6198
1 33.5948 46.6818 49.5635
1 36.5172 44.9394 47.1818
1 37.9453 47.5338 47.226
1 37.9499 49.199 49.6581
1 36.5091 46.6615 49.5673
1 39.4178 44.95 47.2448
1 40.8969 47.4504 47.2384
1 40.9093 49.1698 49.5698
1 39.4061 46.6484 49.5853
1 42.3029 44.9829 47.2285
1 43.8018 47.4873 47.31
1 43.7549 49.1035 49.6535
1 42.3644 46.653 49.5939
1 45.1912 44.9365 47.2602
1 46.6034 47.4749 47.254
1 46.6743 49.1436 49.5605
1 45.2207 46.6339 49.6564
1 48.0592 44.9788 47.2438
1 49.509 47.4516 47.1829
1 49.5393 49.214 49.6212
1 48.0738 46.6449 49.627
1 33.5681 49.9925 47.2003
1 36.5173 50.0058 47.1185
1 39.3905 49.9839 47.2583
1 42.302 49.9965 47.2416
1 45.1974 50.0003 47.2198
1 48.0506 49.9813 47.2229
1 43.7314 34.1452 54.3622
1 46.7673 32.5378 51.9312
1 46.6529 34.1175 54.3181
1 49.5741 32.492 51.9574
1 49.5728 34.1138 54.2959
1 38.0548 37.5392 51.9753
1 37.8629 39.1891 54.3078
1 40.8956 37.4715 52.0277
1 40.8222 39.1321 54.3558
1 39.4237 36.7571 54.3068
1 42.3908 35.0186 52.0479
1 43.8184 37.4681 51.9763
1 43.7691 39.1304 54.3351
1 42.3025 36.6648 54.3572
1 45.18 34.848 51.9858
1 46.6992 37.3885 51.9897
1 46.6293 39.0913 54.3233
1 45.1958 36.5908 54.3492
1 48.1426 34.965 51.9667
1 49.5798 37.4435 51.9422
1 49.5706 39.1098 54.3003
1 48.135 36.6336 54.3226
1 35.0956 42.5184 51.9213
1 34.9868 44.1136 54.2912
1 36.6076 40.0427 51.9744
1 37.9761 42.5567 51.9576
1 37.9738 44.2147 54.3006
1 36.4716 41.6719 54.3378
1 39.4036 40.0108 51.9113
1 40.8488 42.466 51.9719
1 40.8519 44.1776 54.2836
1 39.3051 41.6649 54.3172
1 42.3062 39.9387 51.9648
1 43.7606 42.4376 51.9697
1 43.7208 44.0851 54.3019
1 42.2561 41.6247 54.2909
1 45.2479 39.9811 52.026
1 46.6606 42.4514 51.9805
1 46.6353 44.0907 54.3172
1 45.2155 41.6218 54.3535
1 48.1566 39.9293 51.919
1 49.5851 42.4777 51.9286
1 49.5446 44.052 54.3861
1 48.0993 41.5964 54.2927
1 32.2907 47.5287 51.8951
1 32.2346 49.1561 54.3074
1 33.6646 44.9712 51.9362
1 35.0438 47.5164 51.9672
1 35.0679 49.1373 54.306
1 33.6136 46.6709 54.3298
1 36.4404 45.0433 51.9554
1 37.9301 47.5049 51.9561
1 37.9788 49.1422 54.3437
1 36.4726 46.6595 54.2684
1 39.3988 45.0203 51.9645
1 40.8887 47.4894 51.9193
1 40.8853 49.1445 54.3357
1 39.417 46.67 54.2825
1 42.3489 44.9898 51.9412
1 43.7861 47.4724 52.0092
1 43.8039 49.1788 54.3527
1 42.3345 46.6636 54.3461
1 45.2127 44.9854 51.9794
1 46.6722 47.463 52.0135
1 46.6901 49.1343 54.3539
1 45.2515 46.6065 54.3343
1 48.0826 45.0093 51.9703
1 49.5881 47.4558 51.9872
1 49.5749 49.0834 54.3311
1 48.1691 46.5943 54.3587
1 33.6556 50.0864 51.9624
1 36.5107 49.9909 52.0141
1 39.4291 49.9831 52.0162
1 42.3459 49.9919 51.9949
1 45.2311 50.0086 51.9133
1 48.1415 49.9607 51.9729
1 43.7897 34.2039 59.0712
1 46.8314 32.5353 56.5798
1 46.6182 34.1581 58.9823
1 49.6261 32.5036 56.6132
1 49.4977 34.0316 59.0048
1 37.9946 37.5175 56.6241
1 37.9021 39.1713 59.0405
1 40.8466 37.496 56.7729
1 40.8558 39.1788 59.0508
1 39.3852 36.7962 59.0675
1 42.3573 34.9834 56.7224
1 43.7661 37.4095 56.7464
1 43.7434 39.1519 59.0576
1 42.2682 36.6666 59.1061
1 45.2128 34.8813 56.6917
1 46.6071 37.4089 56.6897
1 46.6479 39.0999 59.0111
1 45.2254 36.6268 59.0443
1 48.0907 34.9442 56.6534
1 49.5593 37.3997 56.6798
1 49.5535 39.093 58.9977
1 48.1301 36.583 59.0028
1 35.0309 42.5008 56.6596
1 35.0603 44.2086 59.0561
1 36.4844 39.9539 56.6594
1 37.9327 42.4358 56.6462
1 37.9572 44.1503 59.0581
1 36.4781 41.6904 59.03
1 39.3813 39.9429 56.7107
1 40.8683 42.4743 56.7159
1 40.8999 44.1403 59.0464
1 39.3351 41.6803 59.0387
1 42.3084 39.9451 56.6988
1 43.7786 42.4055 56.7151
1 43.775 44.114 59.0453
1 42.2909 41.6409 59.0658
1 45.2145 39.9331 56.6736
1 46.6714 42.4586 56.6725
1 46.6516 44.1296 59.0367
1 45.2239 41.5836 59.0932
1 48.1399 39.8848 56.6538
1 49.5654 42.3778 56.6713
1 49.5948 44.0489 59.0895
1 48.1078 41.5908 59.0474
1 32.2684 47.5492 56.659
1 32.2612 49.2204 58.9821
1 33.6265 45.0292 56.6933
1 35.0602 47.5445 56.6908
1 35.1024 49.1426 59.0664
1 33.6167 46.6613 59.0653
1 36.4802 44.9812 56.6354
1 38.0017 47.4819 56.6943
1 38.0041 49.1153 59.0676
1 36.5285 46.6735 59.0172
1 39.4339 44.9359 56.691
1 40.8812 47.4433 56.6544
1 40.8967 49.1514 59.068
1 39.4827 46.6314 59.0097
1 42.3383 44.8958 56.6889
1 43.7798 47.4588 56.7109
1 43.8172 49.1972 59.1004
1 42.3438 46.656 59.0245
1 45.2044 44.9313 56.6413
1 46.7162 47.4463 56.7326
1 46.7556 49.0982 59.0563
1 45.2925 46.6401 59.0451
1 48.1351 44.9074 56.6972
1 49.5868 47.4772 56.7338
1 49.6185 49.1157 59.1398
1 48.2012 46.5584 59.1081
1 33.6305 50.0476 56.6567
1 36.5194 50.0286 56.6611
1 39.4605 50.0192 56.6491
1 42.3684 49.9736 56.7013
1 45.2645 49.982 56.7103
1 48.1685 49.9893 56.6754
1 43.7574 34.2146 63.8273
1 46.7782 32.5744 61.2422
1 46.6827 34.0931 63.7653
1 49.4939 32.4759 61.3355
1 49.5589 34.0056 63.6731
1 38.0063 37.4512 61.4606
1 37.9437 39.1046 63.7214
1 40.8805 37.4358 61.439
1 40.8125 39.1196 63.7596
1 39.432 36.6105 63.8329
1 42.4633 34.9153 61.4073
1 43.7749 37.4049 61.367
1 43.7727 39.0829 63.7184
1 42.3151 36.5899 63.7806
1 45.2349 34.8969 61.4155
1 46.6764 37.4589 61.3584
1 46.7197 39.0704 63.7774
1 45.2638 36.5694 63.7382
1 48.115 34.9789 61.3462
1 49.5605 37.4047 61.3438
1 49.631 38.9726 63.7307
1 48.1687 36.5157 63.7272
1 35.1231 42.5665 61.4398
1 35.1342 44.1473 63.781
1 36.546 40.0241 61.445
1 37.9644 42.4873 61.3986
1 38.0148 44.1433 63.7673
1 36.4866 41.6799 63.749
1 39.4065 39.966 61.3713
1 40.8555 42.4361 61.3672
1 40.9263 44.1147 63.7366
1 39.3773 41.6336 63.7229
1 42.2962 40.0031 61.4011
1 43.7939 42.4299 61.4609
1 43.8464 44.1608 63.8014
1 42.3363 41.6268 63.7613
1 45.2171 39.8955 61.4383
1 46.6867 42.4199 61.4293
1 46.7083 44.1243 63.8162
1 45.2353 41.5803 63.7492
1 48.1688 39.9329 61.3836
1 49.599 42.4274 61.3872
1 49.5795 44.0838 63.8092
1 48.1417 41.6036 63.7932
1 32.3168 47.64 61.4027
1 32.3659 49.168 63.7264
1 33.7519 45.1079 61.4332
1 35.1492 47.5376 61.4225
1 35.1656 49.1904 63.7403
1 33.7181 46.6408 63.7596
1 36.5751 45.0563 61.4146
1 38.0718 47.4774 61.3712
1 38.0146 49.1673 63.7225
1 36.5824 46.6705 63.7258
1 39.5126 45.0149 61.3925
1 40.9726 47.5063 61.4125
1 40.9813 49.1471 63.761
1 39.4882 46.6781 63.7562
1 42.3729 45.0212 61.3569
1 43.8251 47.505 61.401
1 43.8699 49.1897 63.8125
1 42.4148 46.6388 63.7849
1 45.2641 44.9423 61.4077
1 46.701 47.4623 61.4116
1 46.7371 49.118 63.817
1 45.3081 46.6159 63.8076
1 48.1701 44.9449 61.4175
1 49.6582 47.4248 61.4812
1 49.6966 49.1492 63.8198
1 48.148 46.6141 63.8286
1 33.7292 50.1321 61.4166
1 36.5605 50.0291 61.3998
1 39.4819 50.0228 61.4276
1 42.4024 50.0551 61.4839
1 45.3146 49.9882 61.4022
1 48.2108 49.9904 61.4147
1 43.819 34.1565 68.4548
1 49.6788 32.5338 66.0451
1 46.7314 34.1367 68.4213
1 52.5229 32.4308 66.1108
1 49.6591 34.003 68.4324
1 38.1217 37.5577 66.1479
1 38.0415 39.1883 68.4497
1 40.9767 37.478 66.111
1 40.9189 39.1824 68.4937
1 39.5116 36.7257 68.49
1 42.3584 34.9743 66.1397
1 43.8472 37.3865 66.07
1 43.8443 39.1014 68.4363
1 42.3821 36.5951 68.49
1 45.2399 34.9146 66.1322
1 46.7815 37.4247 66.1284
1 46.7088 39.0966 68.4261
1 45.2942 36.6104 68.424
1 48.1969 34.9015 66.124
1 49.6714 37.3665 66.107
1 49.6555 39.1326 68.4407
1 48.2381 36.5593 68.4057
1 35.1221 42.4807 66.1534
1 35.1053 44.1422 68.4636
1 36.6893 40.0283 66.0879
1 38.0058 42.5047 66.1086
1 37.9929 44.1465 68.507
1 36.5791 41.6232 68.4442
1 39.4954 40.0099 66.0841
1 40.9185 42.516 66.118
1 40.9296 44.1484 68.4925
1 39.4554 41.6888 68.506
1 42.4139 39.9709 66.0798
1 43.7966 42.4921 66.1522
1 43.8139 44.0627 68.5459
1 42.3727 41.622 68.5086
1 45.2657 39.9485 66.0242
1 46.7166 42.416 66.1591
1 46.7313 44.1537 68.5306
1 45.279 41.604 68.4495
1 48.2072 39.9275 66.087
1 49.6156 42.3984 66.1399
1 49.6287 44.112 68.5663
1 48.1399 41.6292 68.4869
1 32.3534 47.597 66.0927
1 32.3351 49.1373 68.4686
1 33.6819 45.0324 66.1321
1 35.1286 47.4864 66.0484
1 35.1233 49.1345 68.4913
1 33.6921 46.6723 68.4498
1 36.5761 44.9527 66.1611
1 38.0232 47.4707 66.1128
1 38.04 49.1522 68.5493
1 36.5461 46.6093 68.4634
1 39.5104 45.0005 66.1283
1 40.9713 47.4837 66.1028
1 40.927 49.1598 68.5144
1 39.4543 46.693 68.4801
1 42.3662 44.9963 66.1589
1 43.8324 47.4889 66.173
1 43.8908 49.1296 68.5455
1 42.3621 46.6836 68.5063
1 45.2521 44.9715 66.162
1 46.7133 47.4416 66.2292
1 46.6925 49.1475 68.575
1 45.2342 46.6317 68.5416
1 48.2097 44.8986 66.1788
1 49.6276 47.4613 66.1779
1 49.644 49.1714 68.5248
1 48.1854 46.6122 68.5705
1 33.7738 50.0458 66.0492
1 36.616 49.9716 66.0542
1 39.4962 49.9979 66.0872
1 42.4359 49.9523 66.1562
1 45.3164 49.9569 66.1596
1 48.1715 49.9659 66.1723
1 43.8523 34.0989 73.1018
1 46.9775 32.5904 70.709
1 46.7377 34.1429 73.0248
1 49.8166 32.4503 70.7587
1 49.6832 34.014 73.0901
1 38.1075 37.4858 70.8089
1 38.0287 39.0765 73.1518
1 40.9889 37.4811 70.8273
1 40.8831 39.0708 73.1754
1 39.4998 36.6698 73.1647
1 42.3505 34.9879 70.8351
1 43.8472 37.395 70.7934
1 43.7985 39.0773 73.1205
1 42.4279 36.5382 73.1972
1 45.3206 34.8832 70.7453
1 46.711 37.4172 70.7623
1 46.7178 39.1172 73.1429
1 45.3247 36.5874 73.16
1 48.2394 34.9755 70.7815
1 49.6725 37.4667 70.7791
1 49.6557 39.1507 73.1673
1 48.2475 36.5804 73.1377
1 35.106 42.4806 70.7818
1 35.0574 44.0757 73.1919
1 36.6712 40.0461 70.8212
1 37.9933 42.4826 70.8497
1 37.9716 44.106 73.2487
1 36.5516 41.5919 73.121
1 39.4935 39.9822 70.7804
1 40.936 42.4782 70.875
1 40.9467 44.0962 73.2551
1 39.4172 41.6701 73.1889
1 42.4037 39.9231 70.8516
1 43.8073 42.3751 70.8722
1 43.8406 44.1183 73.2588
1 42.3346 41.5918 73.2208
1 45.3109 39.937 70.8318
1 46.7499 42.4245 70.8784
1 46.7532 44.12 73.2666
1 45.3058 41.6099 73.2425
1 48.2044 39.8911 70.7879
1 49.7062 42.4264 70.8044
1 49.7289 44.1261 73.2296
1 48.2109 41.6217 73.1925
1 32.3204 47.5533 70.8388
1 32.3081 49.1242 73.2155
1 33.69 45.0377 70.8619
1 35.1139 47.4619 70.7951
1 35.1643 49.098 73.2094
1 33.6553 46.6477 73.2074
1 36.5077 44.9931 70.8622
1 38.0323 47.4464 70.8531
1 38.0468 49.0881 73.2049
1 36.5177 46.6109 73.1663
1 39.4752 44.9511 70.8701
1 40.9433 47.5037 70.8061
1 40.9524 49.1512 73.2559
1 39.4482 46.6176 73.265
1 42.4102 44.9522 70.8705
1 43.8139 47.4495 70.8828
1 43.8227 49.1229 73.2864
1 42.3713 46.6152 73.2082
1 45.3353 44.9398 70.8804
1 46.7599 47.4383 70.9494
1 46.804 49.0999 73.2443
1 45.3064 46.6413 73.2914
1 48.2204 44.9766 70.8962
1 49.6712 47.4683 70.8886
1 49.6498 49.1393 73.3016
1 48.232 46.6071 73.2513
1 33.684 50.0234 70.8254
1 36.5887 49.9838 70.8617
1 39.4664 49.9586 70.8579
1 42.3784 49.9771 70.8721
1 45.3059 49.9463 70.9305
1 48.2086 49.9364 70.902
1 43.9666 34.0938 77.801
1 46.9275 32.5026 75.3281
1 46.8286 33.9815 77.7923
1 49.7054 32.4722 75.4213
1 49.6977 34.0079 77.7827
1 38.1463 37.4818 75.5169
1 38.0874 39.1143 77.8957
1 40.9542 37.3403 75.5279
1 40.9972 39.0918 77.8859
1 39.5491 36.754 77.8845
1 42.5577 34.8979 75.4745
1 43.9007 37.3753 75.4983
1 43.8609 39.0497 77.866
1 42.4487 36.5351 77.911
1 45.4231 34.9055 75.4276
1 46.8389 37.4239 75.5118
1 46.8289 39.0482 77.8689
1 45.3718 36.5106 77.8331
1 48.2388 34.905 75.4082
1 49.7525 37.3844 75.4785
1 49.7568 38.9971 77.859
1 48.3048 36.4749 77.8855
1 35.178 42.448 75.5783
1 35.0992 44.1465 77.9248
1 36.6347 39.9246 75.5416
1 37.9771 42.415 75.548
1 37.9863 44.0844 77.8912