5538
Atoms. Timestep: 30000
1 43.7774 34.1478 6.98248
1 46.7722 32.4948 4.86613
1 46.674 34.0718 7.1049
1 48.1396 31.5854 7.13187
1 49.5539 34.007 7.008
1 36.3887 36.9714 7.43088
1 37.9538 39.1325 7.04869
1 40.8281 37.32 4.8585
1 40.822 39.0311 7.06166
1 39.3741 36.5911 7.08812
1 40.9951 34.3778 6.96059
1 43.8346 37.3483 4.68881
1 43.8534 39.049 7.03428
1 42.4021 36.6694 7.07592
1 45.3345 34.8454 4.72678
1 46.7748 37.3045 4.69139
1 46.7425 38.995 6.99195
1 45.2958 36.5278 7.05318
1 48.1614 34.8619 4.72919
1 49.685 37.3316 4.65096
1 49.5834 39.0344 6.97285
1 48.1799 36.5143 7.03592
1 33.6374 41.741 7.16084
1 35.1166 44.1006 7.0383
1 35.0277 39.391 7.24549
1 38.0399 42.3803 4.68694
1 38.0524 44.0137 7.06679
1 36.5582 41.6387 6.96817
1 39.4477 39.858 4.68812
1 40.8386 42.3482 4.68004
1 40.9073 44.0384 6.9806
1 39.4682 41.5338 7.01757
1 42.3091 39.7729 4.68833
1 43.8105 42.2814 4.7108
1 43.8236 43.9313 7.06046
1 42.3032 41.493 7.06059
1 45.3066 39.8463 4.71195
1 46.6944 42.3717 4.67318
1 46.6813 44.0052 7.04288
1 45.3049 41.5014 7.00187
1 48.0833 39.8304 4.59073
1 49.5773 42.3021 4.68087
1 49.6374 44.0123 7.06141
1 48.1591 41.5043 6.98128
1 31.002 46.5241 6.89268
1 32.3639 48.969 6.94181
1 32.2344 44.1554 7.15201
1 35.2223 47.3779 4.64869
1 35.2977 49.0807 7.07293
1 33.7274 46.5846 6.94144
1 36.5908 44.8305 4.73323
1 38.003 47.4311 4.54268
1 38.0934 49.053 6.95225
1 36.6702 46.5203 6.95613
1 39.4363 44.8171 4.61566
1 40.9346 47.3609 4.6249
1 41.0069 48.9615 6.95046
1 39.5255 46.4762 6.88366
1 42.3641 44.7975 4.63362
1 43.8093 47.3148 4.70116
1 43.9006 49.022 7.06361
1 42.4091 46.4827 6.98976
1 45.245 44.8569 4.69045
1 46.7218 47.3325 4.72474
1 46.7637 49.0138 7.12977
1 45.2403 46.5071 7.07399
1 48.1289 44.8526 4.75083
1 49.6391 47.3298 4.77779
1 49.6492 49.0033 7.16442
1 48.1538 46.5355 7.05574
1 33.9089 49.8938 4.74365
1 36.7074 49.9126 4.62542
1 39.6617 49.807 4.59787
1 42.4982 49.8534 4.69371
1 45.3958 49.8435 4.79194
1 48.2405 49.7599 4.76101
1 43.9506 34.0412 11.7395
1 46.7631 32.4188 9.38925
1 46.8014 33.9374 11.7321
1 49.6259 32.3298 9.44281
1 49.6205 33.8914 11.807
1 38.1976 37.3127 9.46662
1 38.0576 38.9319 11.7685
1 40.9606 37.2771 9.34408
1 41.0256 38.9423 11.7236
1 39.6223 36.5287 11.7666
1 42.378 34.8007 9.39358
1 43.8867 37.2495 9.414
1 43.8795 39.0038 11.7384
1 42.4361 36.4769 11.7518
1 45.2624 34.8107 9.37873
1 46.7779 37.3496 9.37115
1 46.763 38.9822 11.7204
1 45.3675 36.4825 11.7738
1 48.2362 34.8713 9.37944
1 49.6076 37.3913 9.37212
1 49.6561 39.0357 11.7353
1 48.2066 36.4786 11.7906
1 35.2188 42.3072 9.3632
1 35.2218 43.9293 11.6689
1 36.6234 39.8287 9.4094
1 38.0213 42.3565 9.38171
1 38.1156 43.9854 11.728
1 36.6736 41.4485 11.7328
1 39.4565 39.8435 9.37107
1 40.9589 42.3609 9.34197
1 40.9479 44.0192 11.6957
1 39.5357 41.4453 11.7436
1 42.4429 39.7998 9.41352
1 43.8274 42.3264 9.4103
1 43.8286 43.9912 11.7547
1 42.4172 41.452 11.7149
1 45.3056 39.8617 9.33692
1 46.7286 42.3608 9.40668
1 46.7853 44.0244 11.8283
1 45.3313 41.5029 11.7834
1 48.2319 39.9015 9.38581
1 49.6737 42.2958 9.38705
1 49.6335 43.9765 11.7507
1 48.2019 41.4897 11.7454
1 32.3232 47.2984 9.27212
1 32.4339 48.8563 11.6426
1 33.7705 44.7932 9.33198
1 35.1693 47.3759 9.30494
1 35.2673 49.0166 11.6458
1 33.7414 46.4339 11.6319
1 36.6283 44.8124 9.35496
1 38.1079 47.3551 9.27897
1 38.1394 48.9666 11.6966
1 36.6654 46.4923 11.6473
1 39.4882 44.8753 9.32081
1 40.9594 47.3156 9.33452
1 41.0106 48.9851 11.6919
1 39.5184 46.5141 11.6792
1 42.3686 44.8582 9.36818
1 43.825 47.3841 9.39293
1 43.8679 48.9773 11.6954
1 42.3963 46.4932 11.7156
1 45.2633 44.8574 9.42549
1 46.699 47.3231 9.45672
1 46.6962 48.9747 11.8376
1 45.3165 46.4677 11.7925
1 48.1236 44.8388 9.41149
1 49.6334 47.2903 9.47126
1 49.597 49.0124 11.7958
1 48.1789 46.5156 11.8229
1 33.6269 49.8656 9.27342
1 36.6389 49.9098 9.34374
1 39.5524 49.8703 9.3428
1 42.3922 49.9147 9.369
1 45.3108 49.8183 9.44396
1 48.1796 49.8219 9.49185
1 43.9009 34.089 16.591
1 47.1283 32.4106 14.12
1 46.7354 33.8883 16.4799
1 49.9328 32.4386 14.0716
1 49.6544 33.9699 16.444
1 38.1849 37.3792 14.1004
1 38.0463 38.9175 16.5018
1 41.0011 37.2636 14.1209
1 40.9159 38.9981 16.3951
1 39.4975 36.5356 16.4727
1 42.5669 34.8565 14.1179
1 43.8941 37.2743 14.0762
1 43.8902 39.0475 16.4442
1 42.404 36.5221 16.4798
1 45.4109 34.7952 14.1308
1 46.781 37.3651 14.1276
1 46.7561 38.9734 16.5255
1 45.3212 36.4847 16.4765
1 48.2422 34.8555 14.144
1 49.647 37.3741 14.1016
1 49.5551 39.015 16.4661
1 48.137 36.4583 16.5245
1 35.2851 42.3018 14.0488
1 35.2034 43.9331 16.3995
1 36.7195 39.8212 14.1315
1 38.0848 42.3047 14.0975
1 38.1383 43.9857 16.4053
1 36.6201 41.4399 16.4284
1 39.5105 39.8635 14.0255
1 41.0149 42.3078 14.0607
1 40.9655 43.9796 16.4793
1 39.4813 41.4437 16.4905
1 42.3788 39.7855 14.0744
1 43.8207 42.2952 14.1012
1 43.9081 43.9713 16.4785
1 42.4162 41.4849 16.4411
1 45.3184 39.8042 14.1279
1 46.7114 42.3065 14.0994
1 46.7563 44.015 16.51
1 45.3147 41.523 16.4994
1 48.1938 39.8866 14.1787
1 49.6712 42.3654 14.0958
1 49.6777 44.0035 16.4964
1 48.2106 41.5411 16.5063
1 32.3705 47.3416 14.0148
1 32.4038 48.9765 16.3398
1 33.7407 44.7708 14.0209
1 35.2002 47.3059 13.9435
1 35.2421 48.9316 16.3419
1 33.8165 46.4622 16.3115
1 36.6349 44.8279 14.0701
1 38.0842 47.3133 14.0364
1 38.1047 48.9674 16.389
1 36.6389 46.464 16.4313
1 39.535 44.8384 14.0143
1 40.9566 47.3134 14.0631
1 41.0296 49.0505 16.4179
1 39.4899 46.4848 16.4463
1 42.4375 44.8154 14.106
1 43.8385 47.3717 14.0934
1 43.8713 48.9769 16.4789
1 42.3652 46.484 16.4456
1 45.2674 44.8626 14.129
1 46.7975 47.2826 14.1632
1 46.7586 48.9908 16.5053
1 45.2477 46.4989 16.4638
1 48.228 44.8277 14.1385
1 49.6522 47.3355 14.1514
1 49.7249 48.9894 16.5212
1 48.2088 46.4905 16.5449
1 33.7589 49.7395 14.0112
1 36.6559 49.8557 14.0042
1 39.5359 49.8757 14.0566
1 42.4121 49.8417 14.0881
1 45.3318 49.8773 14.1372
1 48.2105 49.8244 14.1953
1 43.8009 34.0397 21.2532
1 46.821 32.4439 18.8427
1 46.7323 33.9497 21.162
1 49.6117 32.3949 18.8794
1 49.6462 33.9715 21.2149
1 38.1325 37.3536 18.8003
1 38.0741 38.9409 21.1955
1 40.9121 37.3175 18.8595
1 40.9262 39.0522 21.2072
1 39.5987 36.546 21.2617
1 42.388 34.9566 18.8392
1 43.8187 37.3741 18.8562
1 43.7877 39.0036 21.2636
1 42.3759 36.5306 21.2327
1 45.2629 34.8623 18.8779
1 46.6945 37.3556 18.8936
1 46.6822 38.9915 21.2677
1 45.2294 36.5206 21.2294
1 48.196 34.8846 18.8859
1 49.6292 37.3471 18.8532
1 49.5785 38.9843 21.2394
1 48.1151 36.474 21.226
1 35.2168 42.3263 18.7414
1 35.2744 44.0168 21.0565
1 36.6072 39.832 18.8024
1 38.0655 42.3264 18.7927
1 38.125 44.0187 21.175
1 36.6387 41.4307 21.1306
1 39.4596 39.8191 18.817
1 40.9411 42.3583 18.7912
1 40.975 43.9912 21.1546
1 39.4847 41.508 21.146
1 42.3407 39.8726 18.8087
1 43.8355 42.3022 18.8041
1 43.8223 43.9714 21.191
1 42.3599 41.5145 21.2462
1 45.2193 39.8988 18.8994
1 46.7026 42.3597 18.8928
1 46.8144 43.978 21.2444
1 45.2842 41.4841 21.2812
1 48.0915 39.8509 18.8878
1 49.6326 42.3376 18.9137
1 49.6869 43.9781 21.2436
1 48.1554 41.4654 21.2141
1 32.3828 47.3781 18.72
1 32.5044 49.03 20.997
1 33.8018 44.8538 18.7401
1 35.2034 47.3395 18.7279
1 35.3246 49.0367 21.1387
1 33.8023 46.5099 21.1077
1 36.6408 44.8218 18.7582
1 38.0835 47.364 18.8223
1 38.1213 49.0149 21.1402
1 36.6614 46.5128 21.1403
1 39.539 44.8022 18.8245
1 40.9729 47.4103 18.7826
1 41 49.0449 21.1607
1 39.518 46.5268 21.1479
1 42.4047 44.8519 18.8253
1 43.8905 47.3057 18.8193
1 43.8553 48.9685 21.1973
1 42.4043 46.5066 21.1211
1 45.2583 44.8521 18.8833
1 46.7865 47.2969 18.8511
1 46.7809 49.0063 21.2566
1 45.3378 46.4869 21.2093
1 48.2445 44.8174 18.8862
1 49.6602 47.3147 18.9068
1 49.6675 48.9731 21.2603
1 48.21 46.5119 21.2818
1 33.8222 49.7862 18.7182
1 36.7064 49.861 18.7627
1 39.5339 49.9145 18.7601
1 42.4314 49.8823 18.8436
1 45.3085 49.7752 18.8179
1 48.2395 49.7553 18.9057
1 43.8426 34.1366 25.9179
1 46.7429 32.4911 23.5961
1 46.7008 34.0844 25.9773
1 49.5148 32.4047 23.5199
1 49.544 34.0227 25.9982
1 38.1641 37.343 23.5658
1 37.9258 39.0322 25.9297
1 40.9552 37.3358 23.5971
1 40.8052 38.9998 25.9761
1 39.4853 36.5394 25.936
1 42.4703 34.8827 23.576
1 43.8222 37.3377 23.541
1 43.7771 38.9955 25.8814
1 42.339 36.5446 25.9582
1 45.208 34.8423 23.5829
1 46.6828 37.3507 23.5926
1 46.6937 39.0064 25.9415
1 45.2509 36.4952 25.9383
1 48.1135 34.8825 23.5843
1 49.5899 37.373 23.5817
1 49.5591 39.0188 25.9676
1 48.1191 36.5524 26.0098
1 35.2533 42.4354 23.3863
1 35.2165 44.0545 25.8255
1 36.5695 39.8883 23.5822
1 38.086 42.3588 23.5433
1 38.0613 43.946 25.8936
1 36.597 41.5853 25.8741
1 39.3986 39.8179 23.5204
1 40.9546 42.354 23.5651
1 40.9463 44.0314 25.9415
1 39.4371 41.491 25.8968
1 42.3213 39.8368 23.6045
1 43.8028 42.3271 23.6411
1 43.7488 44.0512 25.9076
1 42.2903 41.4842 25.9731
1 45.2303 39.8698 23.6509
1 46.7155 42.3767 23.5816
1 46.6747 44.0615 25.964
1 45.2055 41.5444 25.9675
1 48.1257 39.8594 23.6353
1 49.6011 42.3266 23.6172
1 49.6201 44.055 26.0017
1 48.0974 41.5162 25.9743
1 32.4405 47.4148 23.4064
1 32.4043 49.08 25.7974
1 33.7909 44.8954 23.4786
1 35.2739 47.3876 23.471
1 35.1727 49.039 25.858
1 33.7303 46.5268 25.7861
1 36.6347 44.8273 23.5017
1 38.0718 47.3155 23.5206
1 38.0834 48.9975 25.9053
1 36.6122 46.5189 25.8459
1 39.5544 44.8262 23.5426
1 40.9581 47.3377 23.5001
1 40.9695 48.9555 25.8917
1 39.4812 46.5221 25.889
1 42.3641 44.8383 23.5636
1 43.7922 47.3506 23.5381
1 43.8044 49.0281 25.8799
1 42.3558 46.5041 25.8932
1 45.2133 44.8615 23.5773
1 46.7066 47.3694 23.5527
1 46.7309 49.0069 25.9965
1 45.261 46.5563 25.9291
1 48.1723 44.8171 23.6206
1 49.6048 47.3413 23.6245
1 49.6293 49.0381 25.9376
1 48.1483 46.5545 25.9268
1 33.8122 49.8837 23.4804
1 36.6608 49.8274 23.5584
1 39.4793 49.8798 23.5322
1 42.3455 49.8541 23.5301
1 45.269 49.8602 23.5506
1 48.2032 49.855 23.6299
1 49.9243 32.4337 28.2585
1 52.6946 32.3945 28.2223
1 38.0834 37.4553 28.2979
1 40.8714 37.3831 28.3433
1 42.4225 34.9027 28.267
1 43.787 37.3059 28.3332
1 45.273 34.7842 28.3511
1 46.7081 37.3059 28.3142
1 48.1668 34.7675 28.3308
1 49.6223 37.3574 28.3076
1 35.2845 42.4176 28.2295
1 36.6784 39.9052 28.2644
1 38.1269 42.3605 28.2617
1 39.5008 39.8808 28.3319
1 40.9617 42.3753 28.3864
1 42.4041 39.824 28.3189
1 43.8271 42.4182 28.3044
1 45.2472 39.7693 28.2693
1 46.6581 42.4031 28.2872
1 48.128 39.8591 28.3384
1 49.5733 42.3487 28.3313
1 32.3618 47.4591 28.0976
1 33.8017 44.9085 28.1019
1 35.2049 47.3405 28.1823
1 36.6152 44.8911 28.2098
1 38.0875 47.3556 28.2386
1 39.5019 44.8791 28.2107
1 40.9771 47.3382 28.2537
1 42.3738 44.891 28.32
1 43.8357 47.3713 28.2683
1 45.2319 44.89 28.2898
1 46.7175 47.3643 28.2311
1 48.1409 44.902 28.306
1 49.5453 47.4339 28.2977
1 33.742 49.8988 28.2287
1 36.6435 49.8945 28.2129
1 39.547 49.8763 28.2777
1 42.4172 49.8378 28.2371
1 45.2944 49.8732 28.2456
1 48.1727 49.9416 28.3602
1 43.8504 34.0113 30.7087
1 46.6794 34.0404 30.7202
1 49.555 33.9664 30.6381
1 37.9612 39.0732 30.7123
1 40.8768 39.0438 30.6892
1 39.4461 36.6357 30.7246
1 43.7503 38.9774 30.7257
1 42.3337 36.4243 30.692
1 46.6969 39.0091 30.6673
1 45.2506 36.5342 30.7022
1 49.5347 39.0224 30.6616
1 48.125 36.5008 30.6365
1 35.2066 44.0841 30.5681
1 38.078 44.0363 30.5636
1 36.6159 41.5662 30.6673
1 40.9486 44.0386 30.6509
1 39.417 41.5027 30.7402
1 43.8279 44.043 30.7292
1 42.3714 41.5403 30.7327
1 46.6901 44.0482 30.6255
1 45.1944 41.5045 30.6266
1 49.5869 44.0774 30.6587
1 48.0822 41.5393 30.666
1 32.3824 49.0034 30.5715
1 35.2463 49.0855 30.4974
1 33.7504 46.5737 30.5293
1 38.0615 49.0222 30.5855
1 36.6107 46.5137 30.5838
1 40.9815 49.0921 30.6654
1 39.5308 46.5897 30.6629
1 43.8414 49.0678 30.6373
1 42.42 46.5649 30.6133
1 46.776 49.0432 30.6638
1 45.2957 46.5871 30.5846
1 49.6855 49.0816 30.639
1 48.1336 46.5751 30.6263
1 43.8442 34.0348 35.3987
1 46.8576 32.4356 33.0952
1 46.6482 33.9856 35.4311
1 49.6234 32.4073 33.0933
1 49.5641 34.0234 35.4111
1 38.0978 37.448 33.0893
1 38.0314 39.0527 35.4602
1 40.9834 37.2986 33.0496
1 40.9419 38.9894 35.5035
1 39.5212 36.6434 35.413
1 42.4878 34.8638 33.0602
1 43.8365 37.3023 33.0955
1 43.8381 39.0391 35.4599
1 42.3736 36.528 35.4655
1 45.2868 34.7997 33.0549
1 46.7258 37.3737 33.0658
1 46.6908 39.0696 35.4026
1 45.298 36.5274 35.439
1 48.1717 34.8489 33.053
1 49.6189 37.3515 32.9748
1 49.5644 39.0019 35.3397
1 48.1811 36.5268 35.3825
1 35.1657 42.4089 33.0138
1 35.1201 44.0154 35.3461
1 36.6497 39.9052 33.0648
1 38.0306 42.3769 33.0474
1 38.0006 44.0232 35.3342
1 36.5884 41.5776 35.3729
1 39.5072 39.801 33.1347
1 40.8963 42.3239 33.0419
1 40.9125 44.0017 35.3893
1 39.4524 41.483 35.4284
1 42.3912 39.8596 33.059
1 43.7847 42.3459 33.0889
1 43.8188 44.0334 35.3726
1 42.3728 41.5072 35.4664
1 45.2075 39.8695 33.0223
1 46.6772 42.4091 33.0238
1 46.7228 44.0288 35.3833
1 45.2729 41.5652 35.4375
1 48.1564 39.8775 33.0582
1 49.5178 42.3912 33.0306
1 49.5788 44.0923 35.4798
1 48.1784 41.5024 35.4049
1 32.402 47.4152 32.9473
1 32.3947 49.0497 35.2663
1 33.7742 44.896 32.9039
1 35.222 47.4309 32.8976
1 35.1651 49.0074 35.2218
1 33.7797 46.5113 35.2828
1 36.6264 44.8314 32.9669
1 38.1012 47.3837 32.9556
1 38.0611 49.0003 35.3321
1 36.6228 46.5107 35.2857
1 39.5215 44.8272 32.9081
1 40.9663 47.3681 32.9884
1 40.9654 49.0315 35.3168
1 39.502 46.5365 35.3303
1 42.3753 44.8498 32.9971
1 43.8475 47.3843 32.9781
1 43.8435 49.0457 35.3847
1 42.3719 46.51 35.3312
1 45.2699 44.9188 33.0007
1 46.7362 47.3996 32.9879
1 46.6736 49.1473 35.3819
1 45.2848 46.5601 35.3872
1 48.1695 44.8947 33.0119
1 49.5969 47.4081 33.0611
1 49.5983 49.1012 35.3588
1 48.1524 46.6087 35.3798
1 33.7713 49.9348 32.8878
1 36.6458 49.9375 32.9405
1 39.517 49.8995 32.9874
1 42.3637 49.8756 33.0243
1 45.3291 49.8972 33.0132
1 48.197 49.9186 33.0398
1 43.7809 34.0741 40.1454
1 46.6585 32.4678 37.8254
1 46.6416 33.9723 40.1342
1 49.4638 32.5365 37.7297
1 49.5557 34.0008 40.2053
1 38.1256 37.4503 37.8438
1 38.064 39.0373 40.1864
1 40.9629 37.3494 37.8054
1 40.9294 39.0486 40.2009
1 39.5361 36.6398 40.2251
1 42.3889 34.8454 37.789
1 43.8262 37.3246 37.8137
1 43.7993 39.0126 40.1403
1 42.3622 36.5024 40.16
1 45.2332 34.8542 37.8094
1 46.6844 37.3764 37.8271
1 46.6801 39.0899 40.1294
1 45.1945 36.5029 40.1833
1 48.0692 34.9442 37.792
1 49.5641 37.404 37.7854
1 49.5791 39.0712 40.127
1 48.1855 36.4926 40.1057
1 35.2338 42.4638 37.7535
1 35.1218 44.1071 40.0898
1 36.6774 39.9912 37.8636
1 38.0697 42.4089 37.7657
1 38.0406 44.1634 40.0932
1 36.6256 41.6414 40.2284
1 39.4831 39.8743 37.8695
1 40.9736 42.3401 37.7647
1 40.9353 44.0871 40.0649
1 39.4825 41.6039 40.1648
1 42.4588 39.8784 37.8647
1 43.822 42.4232 37.8191
1 43.8351 44.1027 40.1135
1 42.3748 41.5608 40.153
1 45.2767 39.851 37.7532
1 46.735 42.392 37.7854
1 46.6531 44.1042 40.1522
1 45.1962 41.5668 40.1463
1 48.1305 39.8911 37.7573
1 49.6067 42.4022 37.7982
1 49.5243 44.0752 40.1659
1 48.1087 41.5288 40.1228
1 32.4477 47.5652 37.633
1 32.3759 49.141 40.0002
1 33.7814 44.9573 37.7288
1 35.2411 47.4275 37.6486
1 35.2375 49.0897 40.0603
1 33.7698 46.6264 39.9802
1 36.5956 44.9116 37.669
1 38.0541 47.4088 37.7287
1 38.0803 49.0808 40.033
1 36.6596 46.6094 40.0815
1 39.4787 44.9285 37.7018
1 40.9435 47.4617 37.7214
1 40.9454 49.0744 40.057
1 39.5166 46.5867 40.1089
1 42.3225 44.8539 37.711
1 43.8127 47.4214 37.7455
1 43.7446 49.1531 40.0758
1 42.3598 46.6139 40.1137
1 45.2601 44.9046 37.6938
1 46.7051 47.4299 37.753
1 46.5665 49.08 40.0937
1 45.1795 46.5592 40.16
1 48.1531 44.9402 37.8173
1 49.5668 47.43 37.7675
1 49.5482 49.1104 40.1553
1 48.0758 46.6071 40.1646
1 33.7915 49.9382 37.6912
1 36.6272 49.9457 37.6157
1 39.569 49.9249 37.6616
1 42.3518 49.9819 37.7242
1 45.2338 50.0031 37.7061
1 48.1088 49.9356 37.7523
1 46.9089 32.5724 42.4955
1 49.6558 32.5592 42.6195
1 38.0542 37.4973 42.6212
1 40.8784 37.4401 42.5624
1 42.4521 35.0413 42.6102
1 43.8104 37.4559 42.5274
1 45.2391 34.8736 42.6009
1 46.6501 37.45 42.4949
1 48.1398 35.0431 42.5831
1 49.5561 37.4945 42.5137
1 35.1247 42.5494 42.5079
1 36.5647 40.0205 42.4959
1 37.9778 42.5375 42.5642
1 39.5117 39.9704 42.5662
1 40.8925 42.4931 42.4929
1 42.4707 39.93 42.5319
1 43.8025 42.4715 42.4941
1 45.2499 39.9465 42.5245
1 46.6987 42.4572 42.4428
1 48.0991 39.9529 42.53
1 49.5637 42.4912 42.5084
1 32.421 47.5702 42.3885
1 33.7622 45.0894 42.4825
1 35.2119 47.5203 42.4692
1 36.5724 45.0151 42.4886
1 38.0383 47.5195 42.4684
1 39.5007 44.9161 42.4746
1 40.8908 47.4357 42.4814
1 42.402 44.9582 42.4551
1 43.7421 47.4981 42.4803
1 45.2727 44.9676 42.5658
1 46.675 47.4333 42.5087
1 48.1386 44.9635 42.5214
1 49.5946 47.4617 42.5271
1 33.7583 50.0034 42.4096
1 36.6826 49.9714 42.4169
1 39.5305 49.9648 42.4341
1 42.3415 49.946 42.5013
1 45.2 49.9719 42.4623
1 48.0727 49.9155 42.4557
1 43.8 34.1677 44.9531
1 46.6838 34.0688 44.9528
1 49.5228 34.089 44.9
1 37.9349 39.1846 44.9008
1 40.8612 39.1799 44.8913
1 39.4634 36.7401 44.973
1 43.7907 39.0997 44.8872
1 42.3328 36.6494 44.9814
1 46.6671 39.081 44.8984
1 45.2096 36.567 44.8755
1 49.5827 39.0881 44.8948
1 48.1309 36.6209 44.8654
1 35.1434 44.1957 44.8693
1 38.0064 44.1759 44.9069
1 36.5109 41.6476 44.8556
1 40.9174 44.1686 44.8682
1 39.4142 41.6762 44.8391
1 43.7513 44.2059 44.8344
1 42.3308 41.6326 44.8365
1 46.6849 44.1192 44.8607
1 45.2134 41.6876 44.8514
1 49.5418 44.1705 44.9737
1 48.0922 41.6054 44.8761
1 32.3982 49.1895 44.7881
1 35.2012 49.2334 44.833
1 33.7367 46.6799 44.8656
1 38.0679 49.2031 44.8569
1 36.5862 46.6965 44.8534
1 40.9071 49.1203 44.8783
1 39.487 46.6513 44.8396
1 43.7832 49.1727 44.8222
1 42.3623 46.6423 44.8667
1 46.6328 49.1266 44.8361
1 45.2123 46.703 44.8764
1 49.4918 49.2008 44.8901
1 48.1335 46.7078 44.891
1 43.7307 34.253 49.6362
1 46.7909 32.5239 47.2617
1 46.6759 34.128 49.6303
1 49.6369 32.5376 47.3428
1 49.501 34.1737 49.6164
1 38.0375 37.5597 47.2915
1 37.9361 39.2119 49.5744
1 40.8429 37.5306 47.2926
1 40.9165 39.1857 49.5629
1 39.3952 36.7078 49.6405
1 42.3482 35.0329 47.2968
1 43.7988 37.5401 47.2783
1 43.8215 39.2118 49.5977
1 42.2844 36.7032 49.6407
1 45.2379 34.9339 47.2723
1 46.6309 37.4902 47.2523
1 46.6479 39.2249 49.6396
1 45.2339 36.6345 49.6063
1 48.1315 34.9439 47.2772
1 49.5034 37.4881 47.2652
1 49.5391 39.1788 49.6244
1 48.0973 36.6376 49.6489
1 35.1448 42.6032 47.1961
1 35.1803 44.2605 49.6467
1 36.5503 40.0761 47.294
1 38.0035 42.5261 47.2502
1 38.0389 44.1914 49.6157
1 36.5427 41.7233 49.605
1 39.3932 40.0416 47.249
1 40.8879 42.5165 47.2521
1 40.9097 44.1947 49.6211
1 39.4672 41.69 49.6335
1 42.3679 40.044 47.2835
1 43.7622 42.5265 47.2556
1 43.7995 44.2298 49.6359
1 42.3981 41.7026 49.5717
1 45.1904 40.0584 47.2154
1 46.6453 42.528 47.1851
1 46.6743 44.164 49.5772
1 45.2578 41.66 49.5796
1 48.1115 40.0253 47.2389
1 49.5506 42.5388 47.2689
1 49.533 44.1436 49.6497
1 48.0763 41.6923 49.6022
1 32.3426 47.6383 47.2266
1 32.4189 49.265 49.5672
1 33.7775 45.1451 47.2793
1 35.1898 47.6253 47.2794
1 35.2097 49.3179 49.6134
1 33.7841 46.8084 49.627
1 36.6117 45.0853 47.2556
1 38.0598 47.5196 47.2036
1 38.0884 49.1907 49.6071
1 36.604 46.7897 49.6293
1 39.4875 45.0362 47.2804
1 40.9046 47.5029 47.2634
1 41.0059 49.1957 49.5736
1 39.5314 46.7262 49.5662
1 42.3699 45.0601 47.2601
1 43.803 47.5096 47.2467
1 43.8563 49.213 49.6719
1 42.392 46.6894 49.6244
1 45.2216 45.0555 47.1957
1 46.7005 47.5272 47.1938
1 46.7 49.1592 49.5983
1 45.2138 46.7057 49.5829
1 48.0689 45.0718 47.2294
1 49.5032 47.5885 47.2617
1 49.5842 49.1914 49.6009
1 48.1226 46.6194 49.627
1 33.7694 50.1207 47.2161
1 36.6185 50.0769 47.2009
1 39.4669 49.9973 47.272
1 42.3772 50.0321 47.2376
1 45.2352 49.9944 47.1487
1 48.0335 50.0696 47.2594
1 43.801 34.2557 54.2777
1 46.8811 32.6248 52.0437
1 46.656 34.1229 54.3609
1 49.6711 32.5474 51.9009
1 49.5383 34.1364 54.2749
1 38.0666 37.6649 51.9797
1 37.9876 39.2458 54.3074
1 40.9163 37.4942 51.9514
1 40.9062 39.1675 54.3785
1 39.396 36.8079 54.3095
1 42.3978 35.0327 51.9542
1 43.8332 37.4955 51.9525
1 43.7622 39.2142 54.2809
1 42.2974 36.6702 54.2961
1 45.2524 35.0168 51.9678
1 46.7059 37.5303 51.9807
1 46.6894 39.1714 54.3034
1 45.2353 36.6497 54.3185
1 48.1682 35.0432 52.0099
1 49.5595 37.536 51.9932
1 49.5607 39.1777 54.3889
1 48.1744 36.6399 54.3406
1 35.1399 42.6337 51.9134
1 35.1239 44.2895 54.3336
1 36.5519 40.0917 51.95
1 38.0254 42.5904 51.9929
1 37.9992 44.2502 54.4473
1 36.5509 41.8014 54.3198
1 39.4524 40.0602 51.974
1 40.9075 42.5561 51.9484
1 40.9431 44.1714 54.3201
1 39.467 41.7292 54.3255
1 42.2975 40.0294 51.9112
1 43.78 42.5025 52.0069
1 43.7976 44.1531 54.346
1 42.3108 41.672 54.366
1 45.2329 40.0039 51.9981
1 46.6897 42.4997 51.9691
1 46.7131 44.1464 54.3961
1 45.2134 41.6251 54.3122
1 48.0987 40.0337 51.9984
1 49.549 42.4798 52.0408
1 49.5487 44.1963 54.3857
1 48.1039 41.7102 54.4501
1 32.3651 47.6527 51.9882
1 32.429 49.2325 54.3583
1 33.7034 45.109 51.9916
1 35.1771 47.5858 51.9964
1 35.2441 49.2733 54.3727
1 33.6926 46.7621 54.4091
1 36.566 45.1137 52.0035
1 38.0453 47.5505 51.9668
1 38.0452 49.27 54.33
1 36.6186 46.736 54.3963
1 39.5002 45.0565 51.997
1 40.92 47.5682 51.9712
1 40.9501 49.2158 54.3322
1 39.5275 46.7176 54.3272
1 42.3921 45.0562 52.0032
1 43.8393 47.5213 52.0013
1 43.825 49.1333 54.3903
1 42.3515 46.6584 54.3146
1 45.2682 45.0281 51.9623
1 46.6675 47.5417 52.006
1 46.7503 49.1409 54.391
1 45.2735 46.6619 54.3627
1 48.1156 45.0151 51.9734
1 49.4906 47.5157 52.0106
1 49.5938 49.1311 54.3529
1 48.1013 46.6691 54.4062
1 33.7427 50.1355 51.9988
1 36.601 50.0945 51.9852
1 39.5093 50.0558 51.9989
1 42.4554 50.0275 51.9797
1 45.2749 50.0025 52.0033
1 48.1253 50.0809 51.9346
1 43.8707 34.1415 59.0574
1 46.7648 32.6266 56.7268
1 46.7032 34.1916 59.0576
1 49.5384 32.56 56.6525
1 49.6174 34.1253 59.0364
1 38.1575 37.6687 56.6729
1 38.0017 39.1452 59.0466
1 40.9308 37.3832 56.7244
1 40.8826 39.1177 59.0258
1 39.5097 36.7037 59.0534
1 42.4173 34.9946 56.6841
1 43.8019 37.5137 56.6332
1 43.7636 39.0568 59.0476
1 42.367 36.5345 59.0374
1 45.1596 35.0217 56.7006
1 46.6868 37.4444 56.6826
1 46.6693 39.0773 59.0419
1 45.2425 36.6622 59.0485
1 48.1512 34.9883 56.6494
1 49.666 37.5177 56.7054
1 49.6145 39.0949 59.1064
1 48.1863 36.6396 59.0072
1 35.27 42.6104 56.7235
1 35.2327 44.1866 59.1287
1 36.6486 40.1187 56.6694
1 38.1103 42.5855 56.7126
1 38.1122 44.1959 59.0761
1 36.6377 41.6759 59.0424
1 39.4928 40.0742 56.6698
1 40.9793 42.5236 56.7363
1 40.9553 44.1257 59.0417
1 39.4999 41.6435 59.101
1 42.351 39.9717 56.7245
1 43.8021 42.4792 56.6849
1 43.8898 44.0178 59.0589
1 42.3789 41.5854 59.0695
1 45.2156 40.0037 56.678
1 46.6544 42.4254 56.7675
1 46.7423 44.0635 59.0997
1 45.2478 41.5301 59.0508
1 48.1553 39.9156 56.7261
1 49.6098 42.4748 56.7514
1 49.5772 44.1451 59.103
1 48.191 41.5709 59.0316
1 32.4234 47.596 56.8142
1 32.3715 49.2672 59.1558
1 33.796 45.1202 56.7563
1 35.2079 47.5482 56.7904
1 35.1848 49.1917 59.1416
1 33.7511 46.7093 59.1759
1 36.5615 45.0463 56.7034
1 38.0773 47.5749 56.7414
1 38.1059 49.1792 59.0946
1 36.6106 46.6535 59.1145
1 39.5451 45.0101 56.7164
1 40.9647 47.5174 56.7139
1 40.932 49.18 59.0901
1 39.5457 46.6584 59.0555
1 42.391 45.0156 56.7232
1 43.8428 47.5178 56.7497
1 43.8454 49.1607 59.0979
1 42.3713 46.6098 59.0834
1 45.2774 44.9839 56.7459
1 46.7193 47.4587 56.7351
1 46.7157 49.0698 59.1038
1 45.2594 46.6336 59.1227
1 48.1571 44.9454 56.7834
1 49.571 47.4422 56.7329
1 49.587 49.1041 59.045
1 48.1775 46.6134 59.1097
1 33.8419 50.0628 56.7317
1 36.7217 50.0379 56.7464
1 39.58 50.0678 56.6931
1 42.3878 50.0185 56.7348
1 45.2665 50.0251 56.6994
1 48.1455 49.9303 56.6989
1 43.9337 34.1623 63.7546
1 46.6868 32.5866 61.3953
1 46.7996 34.0481 63.824
1 49.5087 32.5603 61.3699
1 49.6239 34.0311 63.8114
1 38.0971 37.4799 61.3901
1 38.1015 38.9808 63.7704
1 40.9951 37.3422 61.3926
1 40.9935 39.0412 63.7352
1 39.6061 36.6004 63.7108
1 42.497 34.8501 61.3554
1 43.7975 37.3556 61.4825
1 43.8926 39.1082 63.825
1 42.4907 36.4975 63.8388
1 45.2635 34.9651 61.43
1 46.6873 37.4104 61.4594
1 46.7377 39.0879 63.8449
1 45.3101 36.6036 63.7889
1 48.1427 34.9891 61.413
1 49.6026 37.4688 61.4682
1 49.5964 39.0832 63.8186
1 48.1682 36.5594 63.8636
1 35.2616 42.5273 61.394
1 35.2422 44.1033 63.8738
1 36.6753 39.9556 61.4288
1 38.0795 42.4634 61.4565
1 38.1815 44.0667 63.7977
1 36.6621 41.6079 63.7827
1 39.5513 39.8878 61.376
1 40.9253 42.4281 61.416
1 40.9658 44.0787 63.7968
1 39.5042 41.4649 63.7699
1 42.3656 39.9218 61.3985
1 43.8255 42.3886 61.4512
1 43.8395 44.1065 63.8151
1 42.3907 41.5846 63.7876
1 45.2125 39.8736 61.4177
1 46.6888 42.3463 61.4476
1 46.678 44.0964 63.8368
1 45.2926 41.5179 63.7762
1 48.1314 39.9182 61.4767
1 49.5572 42.4079 61.4402
1 49.6414 44.1279 63.773
1 48.1746 41.6157 63.7947
1 32.3937 47.5504 61.4024
1 32.4337 49.0731 63.855
1 33.815 45.0032 61.5666
1 35.1985 47.4624 61.4963
1 35.2403 49.0971 63.8831
1 33.789 46.5941 63.9267
1 36.6489 44.9505 61.5127
1 38.0791 47.4772 61.4389
1 38.078 49.0485 63.8547
1 36.6813 46.5522 63.8776
1 39.5724 44.964 61.4547
1 40.9657 47.4766 61.3974
1 40.9764 49.1098 63.8411
1 39.5595 46.5918 63.7515
1 42.4055 44.9899 61.4128
1 43.8188 47.4665 61.4435
1 43.8976 49.1133 63.8404
1 42.3536 46.6525 63.8284
1 45.2451 44.8913 61.4509
1 46.6356 47.4203 61.438
1 46.7057 49.134 63.807
1 45.2239 46.556 63.7532
1 48.0954 44.8681 61.4962
1 49.5845 47.4448 61.4353
1 49.5473 49.0936 63.7626
1 48.1199 46.5941 63.83
1 33.7575 49.9351 61.4982
1 36.6859 49.9775 61.5109
1 39.5179 49.9501 61.4817
1 42.4287 49.9101 61.4512
1 45.2605 49.9294 61.4499
1 48.1227 49.9228 61.4317
1 43.9159 34.0701 68.5597
1 49.8137 32.5139 66.2233
1 46.8256 33.9666 68.5116
1 52.5118 32.5265 66.1951
1 49.6872 34.0048 68.5389
1 38.3698 37.4146 66.1296
1 38.1364 39.0125 68.5221
1 41.1128 37.3202 66.1357
1 40.9955 38.9986 68.4998
1 39.6406 36.6257 68.5872
1 42.5449 34.845 66.228
1 43.9196 37.3745 66.2479
1 43.8664 39.0289 68.528
1 42.4436 36.5195 68.6113
1 45.3459 34.8932 66.1678
1 46.7967 37.3532 66.1958
1 46.749 39.0895 68.5145
1 45.3437 36.5129 68.4945
1 48.2165 34.9017 66.1741
1 49.6438 37.4301 66.1695
1 49.578 39.0714 68.4989
1 48.2384 36.501 68.5449
1 35.306 42.3436 66.2053
1 35.1967 43.9914 68.5816
1 36.7455 39.9101 66.0738
1 38.0965 42.3309 66.1558
1 38.1054 43.9919 68.5676
1 36.5975 41.4837 68.514
1 39.6108 39.8906 66.1229
1 40.9775 42.4061 66.1691
1 41.0218 44.0337 68.5178
1 39.5623 41.5164 68.5186
1 42.4427 39.8519 66.1332
1 43.8736 42.4688 66.1269
1 43.8736 44.0996 68.4682
1 42.4206 41.532 68.5162
1 45.3032 39.9264 66.2143
1 46.7005 42.4624 66.1353
1 46.7361 44.1258 68.4833
1 45.2779 41.5449 68.488
1 48.0969 39.9193 66.1558
1 49.6337 42.4731 66.1428
1 49.5863 44.0783 68.5108
1 48.1343 41.6136 68.4375
1 32.4856 47.3861 66.3251
1 32.4793 49.0048 68.5681
1 33.877 44.9259 66.2505
1 35.2849 47.3892 66.272
1 35.2659 49.0247 68.5852
1 33.854 46.5252 68.6565
1 36.6531 44.8713 66.174
1 38.1653 47.4285 66.1763
1 38.1383 49.0265 68.6195
1 36.6959 46.4934 68.6239
1 39.5554 44.8982 66.1655
1 40.9855 47.5056 66.2474
1 41.043 49.122 68.5315
1 39.5762 46.556 68.5351
1 42.4037 44.989 66.1641
1 43.818 47.5185 66.1736
1 43.8855 49.0923 68.5442
1 42.4408 46.5863 68.4743
1 45.2195 44.9961 66.0975
1 46.6867 47.4824 66.1191
1 46.7676 49.1088 68.4814
1 45.3165 46.6134 68.4688
1 48.112 44.9821 66.1322
1 49.5502 47.5056 66.1032
1 49.6267 49.1106 68.5083
1 48.2057 46.6885 68.473
1 33.8029 49.9246 66.1981
1 36.6895 49.9362 66.2163
1 39.5052 49.9746 66.2072
1 42.404 49.9625 66.1494
1 45.2618 49.9741 66.1817
1 48.1829 50.0389 66.1392
1 43.9735 34.1033 73.2731
1 46.7801 32.5142 70.9672
1 46.8381 34.0724 73.245
1 49.603 32.5207 70.932
1 49.6909 34.0639 73.3076
1 38.175 37.447 70.9473
1 38.13 38.9706 73.2927
1 41.0103 37.3889 70.937
1 40.9823 38.973 73.1972
1 39.6186 36.5267 73.3566
1 42.5257 34.8536 70.982
1 43.8679 37.3677 70.9198
1 43.8501 39.0282 73.2268
1 42.497 36.5621 73.2433
1 45.3317 34.9005 70.8763
1 46.7711 37.4476 70.8832
1 46.7725 39.1049 73.1851
1 45.3453 36.6018 73.2069
1 48.1771 34.9588 70.8956
1 49.6492 37.4566 70.8585
1 49.6347 39.1037 73.1448
1 48.3338 36.5558 73.2234
1 35.3277 42.3905 70.9591
1 35.2165 43.9748 73.3709
1 36.6762 39.8834 70.8845
1 38.1189 42.3084 70.8941
1 38.1318 44.0381 73.2382
1 36.6634 41.4932 73.3036
1 39.5727 39.871 70.8995
1 40.939 42.4301 70.9026
1 41.0098 44.0476 73.2244
1 39.5407 41.5332 73.2461
1 42.387 39.8946 70.8755
1 43.8219 42.3804 70.8306
1 43.912 44.0994 73.1964
1 42.4282 41.5393 73.2434
1 45.2885 39.8836 70.8414
1 46.7181 42.4369 70.8079
1 46.809 44.0686 73.1642
1 45.3577 41.5569 73.2707
1 48.187 39.9374 70.8351
1 49.5909 42.499 70.8272
1 49.7159 44.1593 73.1835
1 48.1988 41.6011 73.1877
1 32.4495 47.4387 71.0048
1 32.5436 48.9989 73.3561
1 33.801 44.9248 70.9936
1 35.237 47.3575 70.9814
1 35.3389 49.0515 73.3466
1 33.8649 46.5199 73.426
1 36.6552 44.8455 70.9777
1 38.1576 47.4073 70.8978
1 38.2094 49.0336 73.2402
1 36.7181 46.5798 73.2955
1 39.5422 44.8429 70.911
1 41.0106 47.4372 70.8894
1 41.111 49.0829 73.2401
1 39.5823 46.5856 73.2611
1 42.4166 44.9445 70.8621
1 43.8587 47.4488 70.8421
1 43.9092 49.0745 73.2221
1 42.4661 46.533 73.1888
1 45.2529 44.98 70.863
1 46.7268 47.4775 70.8672
1 46.7834 49.1595 73.1988
1 45.3385 46.6288 73.1811
1 48.1973 44.9889 70.82
1 49.6266 47.4508 70.8342
1 49.6792 49.13 73.1595
1 48.2275 46.6446 73.166
1 33.8389 49.9687 70.9801
1 36.6959 49.8573 70.928
1 39.5866 49.9051 70.9166
1 42.4367 49.9017 70.8798
1 45.3453 49.8968 70.877
1 48.1672 49.9162 70.7936
1 43.9068 34.1444 77.9931
1 46.9077 32.5557 75.5944
1 46.745 34.0346 77.9689
1 49.6474 32.5213 75.5883
1 49.6424 34.0681 77.9891
1 38.2423 37.3941 75.7151
1 38.1732 39.0682 78.0354
1 41.0387 37.4148 75.6276
1 41.0105 39.1131 77.9389
1 39.669 36.6305 78.0216
1 42.4664 34.9494 75.603
1 43.8806 37.3967 75.5931
1 43.8735 39.0933 77.9745
1 42.4982 36.5854 77.9419
1 45.2981 34.9436 75.7016
1 46.7717 37.3967 75.5197
1 46.754 39.0985 77.9254
1 45.3283 36.5786 77.9856
1 48.2443 34.9781 75.6267
1 49.6497 37.4908 75.5603
1 49.6639 39.1149 77.9672
1 48.2299 36.6112 77.9393
1 35.3247 42.369 75.7128
1 35.3839 44.0323 78.0863
1 36.7366 39.8762 75.6649
1 38.163 42.3665 75.6048
1 38.2344 44.0383 78.001