5538
Atoms. Timestep: 40000
1 43.811 34.0956 7.23965
1 46.6182 32.4519 5.00486
1 46.7122 34.0894 7.23184
1 48.0849 31.5849 7.14462
1 49.5462 34.0028 7.01224
1 36.592 36.7051 7.21206
1 38.0591 39.0569 7.11147
1 40.9243 37.2157 4.88795
1 40.9336 38.9737 7.16959
1 39.387 36.6325 7.19879
1 40.955 34.3025 7.40698
1 43.8277 37.2867 4.86591
1 43.8071 39.038 7.15548
1 42.4115 36.5702 7.20469
1 45.2366 34.889 4.90106
1 46.7341 37.2681 4.84263
1 46.6648 39.0017 7.18843
1 45.3077 36.4843 7.18569
1 48.0826 34.8016 4.76167
1 49.6125 37.1851 4.77588
1 49.5729 38.9651 7.06677
1 48.1458 36.49 7.15895
1 33.8805 41.5822 7.218
1 35.247 44.0787 7.10714
1 35.262 39.1002 7.24644
1 38.0669 42.2782 4.86115
1 38.1335 43.9748 7.24789
1 36.6045 41.6019 7.11798
1 39.5848 39.7187 4.79537
1 40.9969 42.2069 4.73275
1 40.9427 43.9362 7.11344
1 39.4853 41.5031 7.13249
1 42.4152 39.7373 4.81483
1 43.8423 42.2277 4.82228
1 43.8219 43.9549 7.13122
1 42.3361 41.4525 7.1664
1 45.3086 39.7789 4.826
1 46.7184 42.2769 4.78469
1 46.6712 43.9498 7.14469
1 45.1946 41.4993 7.20248
1 48.1025 39.7414 4.80643
1 49.5653 42.1786 4.70372
1 49.6185 43.8802 7.04497
1 48.1121 41.4489 7.15845
1 31.1183 46.4055 7.30913
1 32.2762 49.0669 7.23785
1 32.4562 44.0273 7.21973
1 35.2269 47.3313 4.75728
1 35.1595 49.077 7.1157
1 33.7857 46.5778 7.11145
1 36.7166 44.7983 4.85447
1 38.0692 47.3006 4.84143
1 38.0204 48.9942 7.08413
1 36.6718 46.5288 7.15141
1 39.5401 44.7473 4.82199
1 40.9635 47.2574 4.83512
1 40.8871 49.0083 7.04048
1 39.4858 46.5056 7.18944
1 42.4272 44.7847 4.7759
1 43.8302 47.2214 4.85094
1 43.8066 48.9067 7.10895
1 42.3692 46.4282 7.19362
1 45.2188 44.7207 4.76978
1 46.6559 47.1959 4.78065
1 46.6322 48.8463 7.07427
1 45.276 46.4411 7.20578
1 48.1406 44.6629 4.7172
1 49.5312 47.1508 4.73815
1 49.5659 48.8742 7.06534
1 48.0887 46.3917 7.04785
1 33.7486 49.81 4.8662
1 36.5777 49.8126 4.6742
1 39.4579 49.8198 4.73529
1 42.3342 49.7874 4.69533
1 45.2499 49.7017 4.67641
1 48.1443 49.7004 4.66088
1 43.8292 34.0431 11.9038
1 46.7213 32.3856 9.53675
1 46.6619 34.0886 11.8271
1 49.5473 32.2786 9.42636
1 49.5524 33.9498 11.7938
1 37.9328 37.371 9.57758
1 37.9659 39.0012 11.9115
1 40.8354 37.2337 9.49384
1 40.8508 38.9801 11.8009
1 39.4013 36.572 11.8966
1 42.4314 34.8323 9.62183
1 43.8185 37.3164 9.53744
1 43.7771 39.0347 11.8463
1 42.3411 36.5179 11.9346
1 45.2377 34.8498 9.54323
1 46.7209 37.2771 9.49034
1 46.65 39.0938 11.8526
1 45.2366 36.5615 11.8702
1 48.204 34.8543 9.55753
1 49.6331 37.3031 9.44565
1 49.5651 38.9858 11.7567
1 48.0474 36.5747 11.8394
1 35.0675 42.4214 9.4726
1 35.0561 44.0164 11.8907
1 36.5127 39.8469 9.52521
1 37.9279 42.328 9.56472
1 37.9691 43.9485 11.8572
1 36.5189 41.5155 11.9357
1 39.3264 39.7947 9.53738
1 40.8648 42.273 9.55891
1 40.8424 43.9663 11.909
1 39.3932 41.4396 11.8729
1 42.3047 39.7429 9.50564
1 43.7499 42.2521 9.49887
1 43.7256 43.9846 11.8928
1 42.2941 41.4495 11.8855
1 45.2623 39.8101 9.50553
1 46.6892 42.3048 9.5145
1 46.6569 44.0098 11.9027
1 45.1724 41.5253 11.8473
1 48.1679 39.8105 9.45812
1 49.6153 42.2497 9.46845
1 49.5451 43.9175 11.8813
1 48.0664 41.5128 11.9077
1 32.2912 47.4493 9.55584
1 32.2513 49.0498 11.9026
1 33.7242 44.9863 9.49094
1 35.1406 47.4447 9.46605
1 35.075 48.9532 11.8901
1 33.5595 46.5203 11.9395
1 36.554 44.9289 9.54636
1 37.9788 47.4061 9.49828
1 37.9469 48.9661 11.8429
1 36.4958 46.4938 11.8711
1 39.4835 44.8322 9.55505
1 40.9285 47.3595 9.47187
1 40.8675 48.9474 11.8323
1 39.4081 46.4717 11.8498
1 42.3204 44.737 9.44426
1 43.7868 47.2453 9.50623
1 43.7643 48.9199 11.7541
1 42.3349 46.4202 11.8349
1 45.2153 44.7597 9.51441
1 46.7389 47.2712 9.46366
1 46.6617 49.0218 11.8021
1 45.2778 46.5003 11.842
1 48.1162 44.7555 9.48145
1 49.5736 47.2404 9.4913
1 49.586 48.9585 11.8013
1 48.1405 46.4798 11.8413
1 33.6703 49.9074 9.54574
1 36.5366 49.9018 9.47569
1 39.4228 49.8409 9.44887
1 42.3769 49.8166 9.43527
1 45.2185 49.7802 9.40349
1 48.0967 49.7758 9.42639
1 43.8235 34.1802 16.6569
1 46.3587 32.4896 14.0604
1 46.5934 34.0236 16.5068
1 49.201 32.3738 14.1306
1 49.4664 33.9091 16.5605
1 38.0752 37.4092 14.2681
1 37.9577 38.9903 16.5985
1 40.8808 37.3033 14.3009
1 40.8676 38.9744 16.5829
1 39.458 36.5246 16.6284
1 42.3815 34.788 14.2705
1 43.738 37.3381 14.3178
1 43.7823 39.019 16.601
1 42.2933 36.4722 16.6621
1 45.1389 34.8944 14.2432
1 46.6155 37.3324 14.2766
1 46.6491 39.1107 16.6015
1 45.2012 36.5837 16.6561
1 48.02 34.8872 14.2195
1 49.5334 37.344 14.2101
1 49.5891 39.0156 16.5799
1 48.0762 36.5529 16.5721
1 35.1776 42.3185 14.3619
1 35.0634 43.9886 16.62
1 36.6013 39.7962 14.2305
1 38.0131 42.313 14.2985
1 37.9736 44.0302 16.6784
1 36.5288 41.4923 16.687
1 39.4702 39.8431 14.1959
1 40.875 42.2775 14.2258
1 40.8604 44.0518 16.5506
1 39.4561 41.5208 16.5937
1 42.3425 39.7976 14.2103
1 43.7215 42.3318 14.2452
1 43.7673 44.0617 16.6134
1 42.3486 41.5 16.5389
1 45.2458 39.8509 14.2774
1 46.6372 42.3476 14.2566
1 46.7116 44.0098 16.5765
1 45.1847 41.5651 16.6361
1 48.1376 39.806 14.2425
1 49.5704 42.2873 14.2123
1 49.5783 44.0425 16.5807
1 48.1226 41.5571 16.4966
1 32.2676 47.3413 14.2595
1 32.3145 48.9219 16.6369
1 33.6621 44.8264 14.2046
1 35.0603 47.2656 14.2312
1 35.0871 49.0722 16.5745
1 33.702 46.4804 16.5533
1 36.5259 44.7544 14.3124
1 37.9361 47.2984 14.1695
1 37.9705 48.9728 16.5246
1 36.528 46.5238 16.5955
1 39.4152 44.8144 14.2369
1 40.8558 47.2882 14.2012
1 40.8386 49.0425 16.4876
1 39.4495 46.5522 16.5612
1 42.3186 44.8037 14.2584
1 43.7608 47.3802 14.2496
1 43.796 49.0533 16.4895
1 42.2752 46.5354 16.5642
1 45.2016 44.8334 14.2107
1 46.7033 47.3392 14.1569
1 46.7018 49.0067 16.5536
1 45.2214 46.5788 16.5712
1 48.1236 44.833 14.2175
1 49.5811 47.3391 14.2135
1 49.6143 48.9975 16.4439
1 48.1624 46.5453 16.5095
1 33.6307 49.7392 14.1895
1 36.5442 49.813 14.1531
1 39.4455 49.8082 14.1309
1 42.3415 49.8314 14.1303
1 45.1756 49.8192 14.1383
1 48.1419 49.8633 14.1508
1 43.7747 34.0448 21.3553
1 46.6252 32.4603 18.845
1 46.6326 33.9752 21.2669
1 49.4388 32.4538 19.0029
1 49.5255 34.0651 21.3011
1 38.0044 37.4922 18.9733
1 37.992 39.0252 21.3212
1 40.8272 37.3627 19
1 40.8646 39.0431 21.3407
1 39.4506 36.6327 21.4617
1 42.337 34.8989 19.0626
1 43.6608 37.3488 19.0029
1 43.7856 39.1653 21.2563
1 42.3243 36.5197 21.3949
1 45.1674 34.9544 19.0232
1 46.6846 37.4308 18.9585
1 46.6561 39.1359 21.283
1 45.2006 36.5864 21.2893
1 48.0227 34.8357 18.9028
1 49.5544 37.3674 18.8886
1 49.6266 38.9989 21.2833
1 48.0613 36.5406 21.2661
1 35.1664 42.4873 18.9872
1 35.1658 44.1197 21.344
1 36.6035 39.9264 18.9764
1 38.0128 42.4729 18.9637
1 38.0846 44.1244 21.3888
1 36.6217 41.6756 21.3305
1 39.4298 39.93 18.954
1 40.8847 42.4453 18.9095
1 40.8714 44.0709 21.336
1 39.5046 41.6245 21.2996
1 42.2777 39.8661 18.9003
1 43.7528 42.3706 18.9795
1 43.8401 44.0539 21.2469
1 42.3194 41.58 21.3946
1 45.1764 39.8779 18.9545
1 46.7424 42.3943 18.9324
1 46.7443 44.035 21.2269
1 45.2072 41.5799 21.2389
1 48.0879 39.9127 18.931
1 49.5413 42.3885 18.9245
1 49.5792 44.0288 21.2662
1 48.1463 41.5461 21.2144
1 32.3509 47.4054 18.9404
1 32.3195 49.1157 21.2867
1 33.6983 44.8906 19.0328
1 35.1084 47.4307 18.9633
1 35.1441 49.0792 21.2707
1 33.6658 46.5971 21.3076
1 36.5985 44.9523 19.0077
1 38.0376 47.4378 18.9197
1 38.065 49.1083 21.2613
1 36.6223 46.631 21.2429
1 39.5075 44.8896 18.979
1 40.9612 47.4071 18.8797
1 40.9391 49.1044 21.2355
1 39.4977 46.633 21.2694
1 42.3201 44.9029 18.9213
1 43.8342 47.4194 18.9306
1 43.8332 49.0952 21.241
1 42.3932 46.6306 21.2456
1 45.2292 44.8629 18.9409
1 46.7088 47.3779 18.9171
1 46.7371 49.0689 21.2174
1 45.2331 46.5609 21.2699
1 48.1481 44.9301 18.8195
1 49.592 47.4231 18.8307
1 49.563 49.0828 21.2341
1 48.1649 46.5321 21.1841
1 33.6604 49.9133 18.9232
1 36.6081 49.8796 18.8953
1 39.5041 49.8927 18.8822
1 42.4164 49.899 18.8594
1 45.296 49.8906 18.8376
1 48.1777 49.8833 18.8358
1 43.8227 34.1197 26.0711
1 46.6514 32.4858 23.65
1 46.6394 33.9891 26.0307
1 49.4693 32.4727 23.6362
1 49.574 34.0172 25.9762
1 38.0465 37.4672 23.742
1 38.1079 39.0917 26.0802
1 40.9867 37.408 23.7348
1 40.9567 39.0342 26.0057
1 39.4232 36.5855 26.173
1 42.3855 34.933 23.7484
1 43.7781 37.427 23.6307
1 43.8239 39.0876 26.0266
1 42.3741 36.566 26.1167
1 45.2085 34.8588 23.612
1 46.6898 37.4044 23.6195
1 46.6836 39.0856 25.9812
1 45.2696 36.5589 25.9894
1 48.0452 34.9076 23.6216
1 49.5158 37.3711 23.6081
1 49.603 39.0565 25.9725
1 48.0987 36.4866 25.9858
1 35.2433 42.4923 23.6802
1 35.2028 44.1341 25.9895
1 36.7182 40.011 23.6634
1 38.1042 42.4815 23.6466
1 38.0532 44.1376 26.0456
1 36.6615 41.6107 26.0449
1 39.5748 39.9557 23.6627
1 40.9441 42.4694 23.6844
1 40.9785 44.1131 26.0592
1 39.5662 41.5501 25.9905
1 42.3825 39.9444 23.6883
1 43.8669 42.4639 23.621
1 43.9048 44.1906 25.9591
1 42.4723 41.5966 25.9777
1 45.2118 39.9534 23.5692
1 46.7516 42.4821 23.5409
1 46.7341 44.0762 25.9408
1 45.2929 41.6336 25.9338
1 48.1074 39.9676 23.6202
1 49.6161 42.3531 23.5807
1 49.6083 44.0939 25.9777
1 48.1166 41.6073 25.9547
1 32.3289 47.4901 23.6568
1 32.339 49.1799 26.034
1 33.7861 44.9326 23.6206
1 35.1327 47.4402 23.6325
1 35.1939 49.2029 25.949
1 33.7147 46.643 25.9812
1 36.6193 44.9223 23.6539
1 38.0729 47.4227 23.5767
1 38.1033 49.1698 25.9535
1 36.5757 46.678 25.905
1 39.5632 44.9546 23.7054
1 41.0032 47.479 23.6148
1 40.9959 49.1263 25.9661
1 39.5288 46.6116 25.9631
1 42.4317 44.9351 23.5923
1 43.8346 47.4802 23.5828
1 43.8278 49.1347 25.8632
1 42.4226 46.6732 25.885
1 45.2974 45.0179 23.6402
1 46.7644 47.466 23.5629
1 46.7171 49.1672 25.9349
1 45.3362 46.6618 25.9148
1 48.2277 44.9523 23.5901
1 49.6059 47.3757 23.517
1 49.6105 49.0847 25.8402
1 48.163 46.6478 25.91
1 33.6413 50.0037 23.6139
1 36.5929 49.9469 23.568
1 39.5346 49.9218 23.568
1 42.4503 49.9664 23.5305
1 45.2985 49.9815 23.5483
1 48.2158 49.9441 23.5806
1 49.4846 32.4776 28.3067
1 52.243 32.405 28.3052
1 38.1207 37.5186 28.4708
1 41.0012 37.4451 28.4499
1 42.4163 34.9566 28.4501
1 43.8477 37.4584 28.4253
1 45.2474 34.9197 28.4156
1 46.7093 37.3823 28.3275
1 48.1032 34.8544 28.4146
1 49.5579 37.439 28.3203
1 35.2607 42.5409 28.2662
1 36.6465 40.0378 28.3573
1 38.0979 42.4725 28.3935
1 39.5416 39.9502 28.3676
1 40.9876 42.4466 28.3079
1 42.3903 39.9222 28.3823
1 43.8746 42.4471 28.2583
1 45.2432 39.984 28.3425
1 46.7308 42.4495 28.2564
1 48.1243 39.9067 28.3371
1 49.5737 42.4284 28.291
1 32.3502 47.5672 28.3283
1 33.7734 44.9865 28.3304
1 35.159 47.4861 28.2549
1 36.602 44.998 28.3012
1 38.1181 47.3925 28.2015
1 39.5704 44.9144 28.3651
1 40.9802 47.4306 28.3367
1 42.4541 45.0274 28.2948
1 43.8362 47.4983 28.2654
1 45.3059 44.9803 28.2501
1 46.6971 47.4799 28.3174
1 48.2515 44.9786 28.2369
1 49.6412 47.471 28.2244
1 33.6901 50.026 28.3306
1 36.6692 49.9206 28.2727
1 39.5463 49.9986 28.2768
1 42.4107 49.9481 28.2441
1 45.3027 50.0176 28.2342
1 48.2457 49.92 28.2328
1 43.8217 34.1447 30.8066
1 46.6828 34.0301 30.7442
1 49.5968 33.9538 30.8098
1 38.0252 39.1193 30.7597
1 40.9541 39.0956 30.7308
1 39.5921 36.5962 30.8113
1 43.8761 39.0797 30.7683
1 42.4385 36.5864 30.7273
1 46.7298 39.0349 30.6492
1 45.2973 36.5664 30.7697
1 49.6622 39.0183 30.6833
1 48.2613 36.5069 30.7229
1 35.1118 44.1342 30.6907
1 38.0262 44.0806 30.7288
1 36.5495 41.6447 30.6979
1 40.9227 44.1985 30.7096
1 39.5396 41.6237 30.6662
1 43.8577 44.1111 30.6146
1 42.3917 41.6473 30.6562
1 46.7549 44.0996 30.6467
1 45.3163 41.5861 30.6467
1 49.5889 44.1196 30.6345
1 48.1543 41.5591 30.7107
1 32.3872 49.1722 30.7187
1 35.2078 49.1315 30.5604
1 33.7461 46.6279 30.6431
1 38.1024 49.0856 30.6044
1 36.619 46.6177 30.6073
1 40.9783 49.057 30.6262
1 39.4792 46.5993 30.6404
1 43.8867 49.2151 30.633
1 42.5008 46.6808 30.6512
1 46.6814 49.1645 30.6132
1 45.3417 46.6287 30.6102
1 49.6649 49.0606 30.6528
1 48.219 46.6091 30.6263
1 43.832 34.2453 35.477
1 46.7901 32.5726 33.1683
1 46.7214 34.0833 35.5127
1 49.601 32.5163 33.2164
1 49.578 34.145 35.4488
1 38.2295 37.5416 33.1617
1 38.1581 39.1825 35.4183
1 40.9398 37.3963 33.1067
1 40.9961 39.1669 35.4158
1 39.5462 36.6455 35.5123
1 42.4086 34.9744 33.108
1 43.8486 37.4487 33.1096
1 43.8816 39.1103 35.4164
1 42.4242 36.6583 35.448
1 45.2043 34.8838 33.1248
1 46.7195 37.5138 33.0465
1 46.7579 39.1478 35.4438
1 45.309 36.6337 35.4535
1 48.1101 34.982 33.0872
1 49.5979 37.4439 33.015
1 49.6292 39.1862 35.3719
1 48.1546 36.7202 35.3806
1 35.1472 42.4518 33.0751
1 35.2474 44.1807 35.408
1 36.671 39.9626 33.045
1 38.0234 42.3846 33.0531
1 38.1483 44.1674 35.3706
1 36.6891 41.6198 35.3764
1 39.5434 40.0041 33.0591
1 40.96 42.487 33.051
1 40.9945 44.1381 35.3471
1 39.5881 41.7104 35.3941
1 42.4326 39.9579 33.1149
1 43.8673 42.4641 33.1038
1 43.862 44.2302 35.3653
1 42.4631 41.6099 35.4462
1 45.333 40.0333 32.9997
1 46.7619 42.472 33.0274
1 46.7881 44.0967 35.3534
1 45.3385 41.6457 35.4494
1 48.1862 39.9367 33.0532
1 49.6388 42.3749 33.033
1 49.6553 44.094 35.3667
1 48.1736 41.6911 35.3616
1 32.3814 47.5846 33.0378
1 32.4478 49.1516 35.3737
1 33.7296 44.9744 33.0415
1 35.1928 47.4377 32.9925
1 35.2458 49.1186 35.3656
1 33.8188 46.6263 35.3707
1 36.5598 44.9486 33.0186
1 38.0496 47.4167 33.0145
1 38.1054 49.11 35.3598
1 36.6762 46.6283 35.3913
1 39.5122 44.966 33.0218
1 40.9546 47.4165 32.9651
1 40.9746 49.1058 35.395
1 39.5735 46.6618 35.3854
1 42.4686 44.96 32.9787
1 43.855 47.421 32.9971
1 43.9264 49.1021 35.3449
1 42.4201 46.705 35.3845
1 45.3152 44.9409 32.9701
1 46.7468 47.4626 32.9429
1 46.865 49.0817 35.3959
1 45.3358 46.6403 35.3432
1 48.2013 44.9229 32.9783
1 49.6771 47.3723 33.0305
1 49.7551 49.1095 35.3214
1 48.2461 46.5795 35.3588
1 33.8937 49.9741 33
1 36.7525 49.9689 32.8992
1 39.5828 49.923 32.9513
1 42.417 49.9801 32.9829
1 45.316 49.9628 32.994
1 48.2081 49.8947 33.0429
1 43.9224 34.2197 40.2396
1 46.926 32.6124 37.926
1 46.7629 34.1795 40.19
1 49.6812 32.5264 37.8218
1 49.6795 34.1532 40.1728
1 38.1849 37.5582 37.8206
1 38.1782 39.1405 40.17
1 41.0135 37.5123 37.7645
1 41.0102 39.185 40.1641
1 39.615 36.7329 40.1756
1 42.5853 35.021 37.7968
1 43.8903 37.5028 37.8086
1 43.9071 39.1624 40.1677
1 42.4439 36.6437 40.1594
1 45.3149 34.9327 37.8318
1 46.7107 37.5006 37.7711
1 46.7871 39.1755 40.1517
1 45.3809 36.6515 40.2021
1 48.2159 35.0485 37.7778
1 49.6973 37.5248 37.7151
1 49.6579 39.1492 40.1385
1 48.22 36.6272 40.1183
1 35.2999 42.4875 37.7315
1 35.2675 44.1225 40.1497
1 36.7756 40.0595 37.746
1 38.1618 42.5036 37.8042
1 38.1192 44.1472 40.1614
1 36.6332 41.632 40.114
1 39.5994 39.9859 37.751
1 41.0233 42.5423 37.8179
1 41.0545 44.1997 40.1488
1 39.5798 41.5891 40.1334
1 42.4512 39.9985 37.8023
1 43.8712 42.5106 37.7734
1 43.9352 44.1468 40.0935
1 42.4466 41.6769 40.197
1 45.3084 39.9969 37.8143
1 46.7717 42.4764 37.7554
1 46.7585 44.0794 40.1231
1 45.3722 41.6514 40.1584
1 48.1582 40.0033 37.7665
1 49.6782 42.4688 37.7384
1 49.5977 44.1304 40.0515
1 48.2354 41.6431 40.1288
1 32.4548 47.4582 37.7329
1 32.4852 49.0791 40.0858
1 33.8935 44.9275 37.7957
1 35.2132 47.4225 37.7714
1 35.2912 49.1934 40.1873
1 33.8339 46.5777 40.145
1 36.7101 44.9923 37.7772
1 38.1134 47.5009 37.7236
1 38.1549 49.1518 40.1325
1 36.7735 46.6939 40.1197
1 39.5629 45.0308 37.7173
1 41.0149 47.4691 37.7583
1 41.0096 49.0731 40.0571
1 39.5656 46.6562 40.0896
1 42.4499 45.0034 37.7371
1 43.8822 47.4928 37.7352
1 43.9497 49.104 40.1297
1 42.4191 46.6758 40.0716
1 45.3461 44.948 37.7249
1 46.7994 47.4201 37.7899
1 46.864 49.1437 40.0879
1 45.3672 46.6268 40.0945
1 48.2242 44.8971 37.7205
1 49.6475 47.4781 37.7503
1 49.6936 49.0306 40.0888
1 48.1853 46.5627 40.1039
1 33.8454 49.9435 37.7444
1 36.6383 49.9584 37.7128
1 39.5918 49.9743 37.7385
1 42.5058 50.0354 37.7163
1 45.395 49.9284 37.7254
1 48.3123 49.9982 37.6937
1 47.1492 32.615 42.5226
1 49.9061 32.4498 42.5094
1 38.219 37.5281 42.5207
1 41.0216 37.6212 42.5218
1 42.4585 35.1594 42.554
1 43.9358 37.5505 42.5222
1 45.344 35.0502 42.5523
1 46.8228 37.4974 42.5352
1 48.3101 35.0654 42.5715
1 49.6641 37.5433 42.5133
1 35.2778 42.4399 42.5545
1 36.6897 40.0184 42.543
1 38.1275 42.4594 42.46
1 39.5884 39.9763 42.5242
1 41.0052 42.5159 42.5005
1 42.5191 40.0019 42.6047
1 43.9092 42.5274 42.4748
1 45.3627 39.9907 42.5131
1 46.8413 42.4979 42.5657
1 48.2415 39.9694 42.4816
1 49.7215 42.4201 42.5301
1 32.4991 47.5449 42.4987
1 33.8646 45.0064 42.5556
1 35.2529 47.4684 42.4927
1 36.6807 44.9915 42.4856
1 38.1264 47.4617 42.584
1 39.6014 44.9917 42.4951
1 41.0488 47.4448 42.4372
1 42.4674 45.0013 42.4935
1 43.9762 47.4127 42.4905
1 45.3552 45.0068 42.5128
1 46.7709 47.4083 42.4916
1 48.2497 44.8939 42.4645
1 49.6943 47.4418 42.443
1 33.8334 50.0088 42.5078
1 36.7395 49.9941 42.5306
1 39.6884 50.0168 42.444
1 42.5463 49.9532 42.4575
1 45.4383 49.9557 42.5003
1 48.195 49.925 42.488
1 43.8492 34.2928 44.8952
1 46.7506 34.0959 44.8685
1 49.6524 34.0258 44.8518
1 38.1426 39.1703 44.8658
1 40.9956 39.1874 44.9531
1 39.6579 36.7598 44.9757
1 43.9227 39.2051 44.9072
1 42.5001 36.7399 44.8656
1 46.7978 39.1696 44.9243
1 45.3633 36.6195 44.8899
1 49.6795 39.1106 44.819
1 48.2156 36.6227 44.9221
1 35.2882 44.095 44.9155
1 38.1623 44.1339 44.8577
1 36.713 41.6344 44.9091
1 41.0541 44.147 44.8749
1 39.5898 41.6464 44.8112
1 43.9443 44.1403 44.8711
1 42.4986 41.6543 44.9306
1 46.8541 44.1157 44.9014
1 45.3577 41.696 44.8704
1 49.6839 44.1414 44.8891
1 48.2602 41.6347 44.8508
1 32.417 49.0669 44.9517
1 35.2339 49.1097 44.9138
1 33.8705 46.6236 44.8714
1 38.1391 49.1305 44.8796
1 36.709 46.6036 44.9067
1 40.9913 49.174 44.8553
1 39.6417 46.6176 44.8993
1 43.8637 49.1949 44.9298
1 42.5077 46.6385 44.8307
1 46.765 49.1312 44.9046
1 45.3912 46.64 44.854
1 49.6236 49.1197 44.8769
1 48.2324 46.6007 44.8805
1 43.8369 34.2388 49.5389
1 46.6848 32.6573 47.2472
1 46.785 34.1421 49.6134
1 49.5738 32.5009 47.146
1 49.6056 34.0967 49.541
1 38.2062 37.5017 47.2757
1 38.1184 39.1079 49.6514
1 41.0094 37.4885 47.294
1 41.018 39.1803 49.6295
1 39.5924 36.7211 49.5609
1 42.4638 35.1195 47.2052
1 43.9338 37.5328 47.2561
1 43.8953 39.1648 49.5736
1 42.4671 36.6845 49.5868
1 45.305 35.0029 47.2495
1 46.8069 37.4805 47.289
1 46.7028 39.1811 49.6207
1 45.3532 36.6495 49.6295
1 48.1814 34.9628 47.2207
1 49.6701 37.4954 47.2215
1 49.6721 39.2098 49.5828
1 48.2374 36.6532 49.6113
1 35.2166 42.4818 47.2647
1 35.2544 44.0484 49.6867
1 36.7695 39.9476 47.1955
1 38.1298 42.4077 47.26
1 38.0707 44.0578 49.6255
1 36.6412 41.5509 49.564
1 39.5711 39.9901 47.2997
1 40.957 42.4669 47.239
1 41.0536 44.1165 49.5764
1 39.5192 41.6226 49.6113
1 42.4736 40.0378 47.2371
1 43.9134 42.5184 47.2519
1 43.909 44.1708 49.6136
1 42.4708 41.6684 49.6707
1 45.375 40.0197 47.2498
1 46.8212 42.4865 47.2736
1 46.8046 44.1645 49.6517
1 45.3341 41.6744 49.6535
1 48.2987 40.0455 47.1975
1 49.7477 42.4957 47.244
1 49.6511 44.123 49.5865
1 48.2293 41.6263 49.6783
1 32.5069 47.4915 47.2685
1 32.441 49.143 49.5765
1 33.9022 45.0062 47.2577
1 35.3121 47.4264 47.306
1 35.2956 49.081 49.6751
1 33.8223 46.6582 49.6863
1 36.7338 44.9137 47.2139
1 38.2028 47.4954 47.2256
1 38.171 49.0924 49.6358
1 36.7507 46.545 49.6057
1 39.5825 44.9905 47.2345
1 41.0658 47.4744 47.2255
1 41.0673 49.16 49.5919
1 39.6028 46.5788 49.5879
1 42.4952 44.9904 47.2457
1 43.9371 47.4893 47.189
1 43.9515 49.1172 49.6244
1 42.425 46.6274 49.5846
1 45.3961 45.0252 47.1828
1 46.7847 47.4715 47.2665
1 46.7933 49.1633 49.6131
1 45.3499 46.6759 49.5975
1 48.2228 44.9554 47.2914
1 49.6754 47.4922 47.2187
1 49.7087 49.1223 49.606
1 48.1815 46.6698 49.622
1 33.8281 49.9701 47.196
1 36.7228 49.9449 47.2748
1 39.6144 50.0102 47.2791
1 42.4791 49.9898 47.2533
1 45.324 49.988 47.2005
1 48.2628 49.9829 47.2406
1 43.857 34.213 54.3833
1 46.858 32.6068 51.9569
1 46.765 34.112 54.3348
1 49.6379 32.5716 51.8401
1 49.6331 34.1248 54.3071
1 38.1778 37.4888 52.0008
1 38.0588 39.0569 54.3749
1 41.0042 37.4091 51.9108
1 40.9848 39.1139 54.2907
1 39.5684 36.5949 54.4229
1 42.4761 35.0474 51.878
1 43.8698 37.4969 52.0157
1 43.8627 39.1688 54.356
1 42.3897 36.6514 54.3196
1 45.3147 34.9984 52.0138
1 46.7903 37.5205 51.9318
1 46.6877 39.1776 54.3848
1 45.3494 36.6169 54.3186
1 48.2236 35.0296 51.9591
1 49.7149 37.4812 51.9183
1 49.5724 39.1345 54.3691
1 48.1896 36.694 54.3416
1 35.2671 42.4364 52.0343
1 35.1631 44.0777 54.3775
1 36.702 39.9207 51.9883
1 38.0957 42.4212 52.0191
1 38.0804 44.0632 54.3561
1 36.633 41.5668 54.4109
1 39.5548 39.9653 52.0123
1 40.9812 42.4548 51.9196
1 40.9352 44.0866 54.3134
1 39.5866 41.5483 54.3961
1 42.4069 39.996 52.0396
1 43.914 42.4819 52.0359
1 43.853 44.1358 54.3431
1 42.3872 41.6138 54.3346
1 45.3046 39.9742 51.9598
1 46.7526 42.4901 51.9767
1 46.7728 44.1066 54.3588
1 45.24 41.6622 54.3653
1 48.1498 39.9675 52.0406
1 49.6905 42.4517 52.0043
1 49.6833 44.0812 54.4543
1 48.1952 41.6881 54.3383
1 32.4392 47.4939 51.9527
1 32.4206 49.0557 54.3801
1 33.842 44.989 52.0225
1 35.3283 47.4366 52.0585
1 35.2414 49.103 54.3866
1 33.8169 46.575 54.4158
1 36.6504 44.8769 52.0218
1 38.1349 47.4811 52.0042
1 38.1174 49.0917 54.4172
1 36.6908 46.5654 54.4223
1 39.537 44.975 51.9859
1 40.9985 47.4763 51.9689
1 41.0619 49.0871 54.4082
1 39.5487 46.6394 54.3621
1 42.3541 44.9493 51.98
1 43.844 47.447 51.9611
1 43.8805 49.0462 54.3958
1 42.3777 46.5829 54.3606
1 45.2943 44.9222 51.9685
1 46.7802 47.4157 52.0109
1 46.8048 49.1312 54.3383
1 45.279 46.6308 54.3489
1 48.2598 44.9496 51.9973
1 49.6518 47.4157 51.9848
1 49.649 49.0462 54.3276
1 48.177 46.634 54.4054
1 33.8772 49.9229 52.0815
1 36.7256 49.9163 52.0328
1 39.6033 49.9478 52.0422
1 42.4757 50.0282 51.9502
1 45.3554 49.9108 51.9848
1 48.1858 49.8713 51.9647
1 43.8507 34.1618 59.0441
1 46.7566 32.5594 56.662
1 46.7168 34.0199 59.1104
1 49.5741 32.554 56.6603
1 49.6256 34.0513 59.0425
1 38.1168 37.4397 56.7657
1 38.0138 39.0836 59.0202
1 40.9713 37.4529 56.7383
1 40.9675 39.0782 59.1245
1 39.4514 36.6436 59.0793
1 42.3696 34.9986 56.6253
1 43.8713 37.4096 56.7364
1 43.8305 39.0608 59.0649
1 42.3748 36.5455 59.0895
1 45.2828 34.9282 56.6935
1 46.7182 37.4764 56.7255
1 46.7443 39.1319 59.0373
1 45.3027 36.6066 59.0443
1 48.2319 34.9227 56.6611
1 49.6358 37.4093 56.6834
1 49.6226 39.1058 59.066
1 48.168 36.5251 59.0031
1 35.171 42.362 56.77
1 35.1126 44.0378 59.1021
1 36.6095 39.9639 56.767
1 38.0119 42.4 56.7531
1 38.002 44.0608 59.1302
1 36.5409 41.5642 59.1436
1 39.5201 39.9471 56.7469
1 41.0102 42.4716 56.7527
1 40.9178 44.0269 59.1243
1 39.4953 41.522 59.0934
1 42.4254 39.9188 56.7255
1 43.8643 42.4549 56.744
1 43.8544 44.0812 59.16
1 42.4205 41.581 59.0771
1 45.2873 39.9764 56.7278
1 46.7651 42.3572 56.7367
1 46.686 44.1089 59.0513
1 45.2702 41.557 59.0378
1 48.1621 39.9221 56.695
1 49.6781 42.4204 56.6986
1 49.5906 44.1178 59.0976
1 48.2092 41.6368 59.0421
1 32.4603 47.4602 56.7347
1 32.3573 49.0258 59.0538
1 33.841 44.9583 56.7737
1 35.3138 47.3824 56.8036
1 35.1851 49.0853 59.1244
1 33.7769 46.5789 59.1185
1 36.6375 44.877 56.7696
1 38.1357 47.4394 56.7793
1 38.0911 49.0492 59.1425
1 36.65 46.5274 59.1913
1 39.5229 44.8847 56.7767
1 41.0087 47.3662 56.7346
1 40.9988 49.0204 59.1559
1 39.5103 46.4914 59.1973
1 42.3666 44.8891 56.7817
1 43.8024 47.3689 56.7649
1 43.7805 49.0736 59.0903
1 42.363 46.5088 59.0806
1 45.2947 44.9407 56.758
1 46.7163 47.415 56.7536
1 46.6944 49.0281 59.115
1 45.2256 46.5642 59.1646
1 48.1847 44.9375 56.7858
1 49.6111 47.3912 56.83
1 49.5983 49.0408 59.1392
1 48.1578 46.6144 59.1328
1 33.7818 49.8942 56.7222
1 36.6802 49.8989 56.8068
1 39.5958 49.8867 56.7587
1 42.4323 49.891 56.7744
1 45.2914 49.8732 56.6779
1 48.19 49.9031 56.7524
1 43.8838 34.0955 63.7116
1 46.6554 32.5093 61.4444
1 46.6494 34.0733 63.7598
1 49.5337 32.5075 61.403
1 49.5239 34.0264 63.7887
1 38.072 37.4563 61.413
1 37.98 39.0493 63.8235
1 40.8912 37.4124 61.3989
1 40.8949 39.0947 63.8378
1 39.468 36.6514 63.8023
1 42.4467 34.9288 61.4324
1 43.7803 37.3846 61.4447
1 43.8004 39.0912 63.8102
1 42.2963 36.5067 63.7915
1 45.2664 34.9456 61.3925
1 46.7053 37.4229 61.3901
1 46.6344 39.0684 63.7706
1 45.2396 36.5306 63.774
1 48.1387 34.9924 61.3996
1 49.6059 37.4321 61.3863
1 49.5453 39.028 63.7813
1 48.1085 36.5706 63.7751
1 35.1422 42.4648 61.4894
1 35.1166 44.0181 63.9153
1 36.6381 39.9693 61.4503
1 37.9937 42.3889 61.4422
1 37.9267 43.9766 63.8498
1 36.4933 41.5034 63.8525
1 39.4527 39.8768 61.4539
1 40.9097 42.3724 61.52
1 40.8594 44.0312 63.8471
1 39.4027 41.5538 63.8062
1 42.3817 39.8849 61.4674
1 43.791 42.3943 61.4887
1 43.8034 44.1093 63.849
1 42.3602 41.5678 63.905
1 45.2459 39.9022 61.3584
1 46.652 42.4318 61.4443
1 46.6856 44.0415 63.8195
1 45.2321 41.6006 63.8114
1 48.1196 39.9399 61.4388
1 49.53 42.4077 61.3777
1 49.5313 44.0411 63.7926
1 48.1334 41.553 63.8078
1 32.2961 47.5374 61.4294
1 32.3042 49.0699 63.8207
1 33.6964 44.9914 61.526
1 35.1692 47.4324 61.472
1 35.1681 49.0861 63.9063
1 33.7724 46.5978 63.8677
1 36.5409 44.9054 61.4831
1 38.0582 47.3894 61.5645
1 38.0448 49.0053 63.8939
1 36.5244 46.566 63.8354
1 39.4662 44.8591 61.5402
1 40.9108 47.4141 61.5289
1 40.9969 49.0532 63.8134
1 39.5016 46.562 63.8865
1 42.3338 44.8837 61.5055
1 43.7675 47.3402 61.5168
1 43.8794 48.9989 63.8389
1 42.3549 46.548 63.8553
1 45.193 44.8783 61.4915
1 46.664 47.4116 61.4906
1 46.7134 49.0539 63.85
1 45.3197 46.5205 63.7987
1 48.0263 44.9305 61.5312
1 49.5654 47.3748 61.5526
1 49.5885 49.0983 63.8531
1 48.1198 46.5565 63.8463
1 33.6717 49.939 61.4636
1 36.5934 49.8757 61.4891
1 39.4885 49.8802 61.492
1 42.3948 49.9165 61.4854
1 45.2732 49.8519 61.4475
1 48.1833 49.877 61.4717
1 43.749 34.1086 68.5158
1 49.6666 32.4677 66.146
1 46.6829 34.1559 68.4865
1 52.4037 32.4947 66.1243
1 49.5553 34.055 68.5079
1 38.0711 37.4347 66.1557
1 37.8688 39.0291 68.5607
1 40.8692 37.4926 66.1323
1 40.7924 39.0028 68.5769
1 39.3925 36.6107 68.5963
1 42.3328 34.9849 66.1202
1 43.7426 37.3754 66.1198
1 43.7129 39.0456 68.5326
1 42.2421 36.5892 68.5282
1 45.1715 34.8638 66.1566
1 46.6575 37.3289 66.11
1 46.6733 39.0631 68.5059
1 45.2075 36.5837 68.4657
1 48.1195 34.8282 66.1386
1 49.4933 37.3893 66.1587
1 49.5993 39.119 68.5183
1 48.1106 36.5953 68.4746
1 35.0704 42.412 66.3042
1 35.1165 44.1052 68.6245
1 36.4787 39.8914 66.151
1 37.8906 42.3629 66.2298
1 37.9758 44.111 68.5322
1 36.5433 41.4986 68.6037
1 39.3271 39.9381 66.2284
1 40.7975 42.3867 66.1731
1 40.8711 44.0469 68.5141
1 39.4013 41.5364 68.5593
1 42.2643 39.9163 66.2335
1 43.7625 42.3962 66.2159
1 43.7639 44.0633 68.5349
1 42.2982 41.5162 68.5758
1 45.1522 39.8363 66.1931
1 46.6412 42.3642 66.1696
1 46.6239 44.0585 68.5205
1 45.2308 41.537 68.5726
1 48.047 39.8396 66.1104
1 49.5241 42.367 66.1314
1 49.5717 44.1047 68.4925
1 48.1512 41.6083 68.4863
1 32.2884 47.4653 66.1737
1 32.3704 49.028 68.5857
1 33.751 44.9591 66.2549
1 35.1369 47.4779 66.2638
1 35.1487 49.1177 68.5914
1 33.6631 46.6174 68.5872
1 36.5189 44.9791 66.2113
1 38.003 47.4673 66.2374
1 38.0324 49.1241 68.5635
1 36.5829 46.5618 68.5868
1 39.3822 44.9313 66.141
1 40.893 47.4325 66.2058
1 40.9069 49.0666 68.5754
1 39.4215 46.5606 68.5608
1 42.27 44.8607 66.178
1 43.8411 47.3785 66.1751
1 43.861 49.1054 68.4881
1 42.3187 46.5919 68.5206
1 45.1749 44.8248 66.1633
1 46.6952 47.3718 66.1778
1 46.7016 49.0614 68.5173
1 45.2788 46.5752 68.4993
1 48.0523 44.8641 66.1861
1 49.5801 47.4072 66.2002
1 49.5857 49.0807 68.5038
1 48.1393 46.5492 68.519
1 33.7183 49.9307 66.2144
1 36.6117 49.9526 66.2542
1 39.4721 49.9327 66.2117
1 42.3968 49.8626 66.1768
1 45.2621 49.8991 66.1552
1 48.0996 49.9195 66.2251
1 43.8778 34.1532 73.2094
1 46.8388 32.5783 70.8619
1 46.7307 34.092 73.2482
1 49.6035 32.4951 70.8558
1 49.6125 34.0552 73.2482
1 37.9996 37.4445 70.9537
1 37.9564 39.0931 73.3276
1 40.8219 37.3385 70.9195
1 40.8256 39.0822 73.2864
1 39.4528 36.7308 73.3224
1 42.4661 34.8556 70.8944
1 43.7213 37.3515 70.8726
1 43.709 39.0206 73.2902
1 42.3467 36.4962 73.2846
1 45.246 34.9127 70.8443
1 46.6896 37.4047 70.8728
1 46.6721 39.1107 73.2872
1 45.2255 36.5796 73.2389
1 48.1504 34.9867 70.865
1 49.5688 37.4699 70.8409
1 49.6241 39.0764 73.196
1 48.1476 36.5954 73.2547
1 35.1528 42.4868 71.0077
1 35.0506 44.1293 73.3798
1 36.596 39.9751 70.9641
1 38.0306 42.4362 70.9558
1 37.9966 44.1202 73.2853
1 36.5227 41.6353 73.3237
1 39.4282 39.8895 70.925
1 40.9046 42.3963 70.8937
1 40.8748 44.0876 73.2063
1 39.4216 41.5767 73.2913
1 42.2923 39.8283 70.9373
1 43.7759 42.3597 70.9052
1 43.7987 44.0777 73.2179
1 42.3153 41.5365 73.2043
1 45.1495 39.8698 70.9432
1 46.6702 42.3846 70.8453
1 46.7051 44.056 73.2005
1 45.2306 41.5782 73.3145
1 48.0659 39.9585 70.8642
1 49.5751 42.416 70.8327
1 49.5915 44.0354 73.2032
1 48.1885 41.5838 73.2204
1 32.3218 47.4694 70.9581
1 32.3964 49.063 73.3664
1 33.7612 45.004 70.9926
1 35.1289 47.4272 70.9163
1 35.1414 49.1141 73.2923
1 33.7274 46.6066 73.2982
1 36.5484 44.9375 70.9451
1 38.0094 47.4403 70.9595
1 38.0238 49.1268 73.3573
1 36.6068 46.5316 73.3103
1 39.4004 44.9082 70.8926
1 40.9104 47.3998 70.8717
1 41.0149 49.0251 73.2011
1 39.5122 46.5655 73.2659
1 42.3311 44.9256 70.8801
1 43.8395 47.3889 70.9139
1 43.8633 49.0599 73.2395
1 42.4372 46.5715 73.2675
1 45.2048 44.8764 70.8986
1 46.731 47.4172 70.9263
1 46.7837 49.1234 73.2205
1 45.3274 46.6553 73.2846
1 48.1094 44.9066 70.8949
1 49.623 47.3932 70.8346
1 49.6192 49.1205 73.2494
1 48.1662 46.5602 73.2689
1 33.6609 49.9051 70.9641
1 36.6184 49.9341 70.9336
1 39.4896 49.8852 70.8944
1 42.4235 49.9057 70.8764
1 45.2786 49.9396 70.8924
1 48.1895 49.9671 70.9165
1 43.8012 34.1851 77.8876
1 46.9222 32.5675 75.5994
1 46.6689 34.1257 77.9474
1 49.6378 32.523 75.5466
1 49.622 34.1127 77.8935
1 38.0536 37.5292 75.6462
1 37.99 39.1375 77.9792
1 40.9015 37.4072 75.6742
1 40.9332 39.0491 78.0136
1 39.4738 36.7229 78.0045
1 42.4143 34.9325 75.6032
1 43.8202 37.3364 75.6209
1 43.8648 39.1125 77.9417
1 42.399 36.5625 77.9412
1 45.3049 34.9477 75.5745
1 46.6824 37.4466 75.6358
1 46.7376 39.1267 77.9466
1 45.358 36.6082 77.9356
1 48.2078 35.0113 75.6418
1 49.5985 37.4649 75.5815
1 49.6303 39.0874 77.9433
1 48.2333 36.6466 77.9467
1 35.1937 42.4945 75.7486
1 35.2144 44.1839 78.0649
1 36.5802 39.9485 75.7056
1 38.0487 42.3938 75.6407
1 38.0699 44.1034 77.9694