5538
Atoms. Timestep: 50000
1 43.7423 33.9548 7.19751
1 46.6178 32.3696 4.86147
1 46.5827 33.9607 7.11125
1 48.0367 31.6537 7.10174
1 49.5064 34.0007 7.16307
1 36.7193 36.7352 7.0856
1 37.9136 39.1376 7.2754
1 40.9955 37.3629 4.86122
1 40.8792 38.9963 7.29846
1 39.4137 36.5293 7.30201
1 42.383 34.8092 4.97566
1 43.7804 37.2877 4.81283
1 43.7158 38.9462 7.16882
1 42.266 36.4811 7.1709
1 45.1926 34.7575 4.77423
1 46.6287 37.3019 4.77313
1 46.5374 38.9062 7.07833
1 45.1412 36.3576 7.14664
1 48.0337 34.8268 4.77918
1 49.5565 37.2059 4.83461
1 49.4423 38.9314 7.10242
1 48.0097 36.424 7.13336
1 33.7168 41.4022 7.54339
1 35.1074 43.875 7.1743
1 35.1837 39.0327 7.53725
1 38.0359 42.2542 4.86755
1 38.0853 43.9585 7.21577
1 36.5325 41.5185 7.32154
1 39.4583 39.807 5.00207
1 40.8674 42.2944 4.81012
1 40.8433 43.9778 7.1104
1 39.4459 41.5028 7.23536
1 42.2904 39.7955 4.91713
1 43.6816 42.3249 4.79596
1 43.7406 43.9815 7.12411
1 42.2633 41.5172 7.20716
1 45.1763 39.8237 4.75436
1 46.5911 42.1509 4.68333
1 46.57 43.9592 6.96483
1 45.1248 41.4271 7.1197
1 48.0106 39.6578 4.72037
1 49.4767 42.1413 4.61788
1 49.5026 43.9193 6.93645
1 48.0656 41.4345 7.00139
1 30.9602 46.15 7.54323
1 32.2053 48.7601 7.33203
1 32.308 43.7216 7.42191
1 35.0988 47.1737 4.93106
1 35.1105 48.8432 7.20275
1 33.6507 46.3039 7.24341
1 36.6109 44.6992 4.89106
1 37.8884 47.2952 4.79576
1 37.9363 48.9125 7.15165
1 36.523 46.3962 7.18759
1 39.4585 44.8059 4.76736
1 40.7486 47.3657 4.64488
1 40.8831 48.973 7.02795
1 39.4422 46.5349 7.04916
1 42.254 44.8059 4.68968
1 43.7276 47.2511 4.60115
1 43.7811 48.9004 6.96606
1 42.2787 46.4999 7.01415
1 45.2067 44.7004 4.66243
1 46.6653 47.2588 4.61097
1 46.6806 48.9081 6.97491
1 45.1801 46.4512 6.92052
1 48.1281 44.6265 4.59786
1 49.5756 47.2018 4.68192
1 49.5158 48.9138 6.94659
1 48.1064 46.3802 6.98516
1 33.5301 49.605 5.00876
1 36.3833 49.7157 4.86992
1 39.2788 49.7937 4.69293
1 42.3073 49.7363 4.64529
1 45.2121 49.699 4.65489
1 48.1583 49.7987 4.61566
1 43.621 33.9657 11.9047
1 46.5913 32.3516 9.44207
1 46.6258 33.8726 11.896
1 49.3997 32.2952 9.41834
1 49.4948 33.9042 11.9827
1 37.9096 37.4851 9.5632
1 38.0403 38.9965 12.0034
1 40.7727 37.2734 9.63393
1 40.8223 38.9869 11.9903
1 39.4242 36.5293 11.9694
1 42.297 34.8982 9.52371
1 43.6818 37.3059 9.53969
1 43.7217 39.0019 11.9321
1 42.2622 36.487 11.9766
1 45.1406 34.765 9.58079
1 46.5073 37.2395 9.50597
1 46.669 38.8611 11.8128
1 45.1436 36.3823 11.9171
1 48.0247 34.7979 9.53023
1 49.5371 37.288 9.47812
1 49.5857 38.8958 11.8793
1 48.0802 36.4289 11.8649
1 35.026 42.3454 9.64214
1 35.0773 43.998 12.0768
1 36.5387 39.9852 9.74672
1 38.0014 42.3872 9.62722
1 37.9314 44.0927 11.9534
1 36.5663 41.5926 11.9748
1 39.4523 39.8622 9.61736
1 40.9117 42.4164 9.58968
1 40.8181 44.0409 11.9287
1 39.4013 41.5016 11.9646
1 42.3224 39.8717 9.61131
1 43.8301 42.3225 9.53539
1 43.7263 44.0161 11.8152
1 42.2188 41.4997 11.9442
1 45.2037 39.8098 9.51373
1 46.7062 42.2951 9.39544
1 46.7591 43.8999 11.7264
1 45.2535 41.5025 11.8413
1 48.0414 39.7634 9.47507
1 49.6128 42.2668 9.36693
1 49.6306 43.9097 11.7008
1 48.1005 41.3846 11.7099
1 32.2001 47.2794 9.70423
1 32.2228 48.8867 11.9386
1 33.5435 44.8355 9.67503
1 35.0412 47.1723 9.63528
1 35.0454 48.9909 11.9224
1 33.6059 46.4368 12.0506
1 36.5181 44.7877 9.58016
1 37.9643 47.2604 9.48869
1 37.9476 49.0249 11.8422
1 36.4519 46.5452 11.9105
1 39.4399 44.8569 9.51181
1 40.8793 47.386 9.40604
1 40.8561 48.9585 11.8339
1 39.3442 46.5293 11.8454
1 42.3077 44.8628 9.44042
1 43.8232 47.321 9.40259
1 43.7267 48.9952 11.7389
1 42.2749 46.4482 11.7492
1 45.2515 44.8293 9.43597
1 46.7339 47.2967 9.303
1 46.5893 48.95 11.6739
1 45.2486 46.4718 11.7773
1 48.1146 44.8049 9.30049
1 49.5896 47.3035 9.29102
1 49.6572 48.97 11.653
1 48.146 46.4806 11.7104
1 33.642 49.7709 9.57957
1 36.4856 49.7341 9.53653
1 39.4144 49.8326 9.45367
1 42.2858 49.7905 9.41282
1 45.2241 49.8202 9.33069
1 48.1211 49.8588 9.35908
1 43.6913 33.9371 16.6687
1 46.6759 32.3639 14.284
1 46.5691 34.0522 16.6233
1 49.4323 32.3702 14.3281
1 49.4925 33.979 16.7005
1 38.0581 37.4095 14.3998
1 37.9682 38.9292 16.6753
1 40.8488 37.3415 14.3833
1 40.8282 38.9598 16.7549
1 39.4856 36.4627 16.7759
1 42.4115 34.8129 14.3263
1 43.7329 37.2481 14.2762
1 43.7426 39.0052 16.6428
1 42.3606 36.4619 16.6606
1 45.1563 34.7409 14.2212
1 46.6253 37.2585 14.2101
1 46.6455 38.9536 16.6044
1 45.1496 36.4493 16.6094
1 48.0146 34.8239 14.2703
1 49.5113 37.3282 14.2119
1 49.534 39.0172 16.5633
1 48.09 36.5256 16.6395
1 35.0212 42.3997 14.381
1 34.9481 43.9449 16.7527
1 36.6234 39.8871 14.3458
1 37.9075 42.4444 14.3246
1 37.8939 44.0369 16.6786
1 36.396 41.4946 16.7306
1 39.4435 39.8117 14.3097
1 40.8023 42.4124 14.3217
1 40.8125 44.1004 16.6561
1 39.3264 41.4969 16.6231
1 42.2715 39.8219 14.316
1 43.7671 42.2965 14.2289
1 43.7661 44.0556 16.5028
1 42.1956 41.5125 16.6162
1 45.1898 39.7393 14.2429
1 46.6719 42.2442 14.1607
1 46.6535 44.0577 16.506
1 45.1639 41.4753 16.5629
1 48.0702 39.7214 14.197
1 49.52 42.2597 14.1835
1 49.5664 43.9705 16.4886
1 48.1084 41.5011 16.5317
1 32.2888 47.3448 14.2545
1 32.2206 48.9881 16.6553
1 33.6145 44.8366 14.4283
1 35.1008 47.3517 14.3268
1 35.0103 49.064 16.7242
1 33.6102 46.4931 16.7017
1 36.4533 44.8786 14.3393
1 37.9543 47.3243 14.253
1 37.9403 49.0288 16.6682
1 36.4455 46.4866 16.6492
1 39.361 44.8519 14.3124
1 40.8343 47.353 14.1776
1 40.8641 49.0334 16.5462
1 39.3662 46.559 16.5493
1 42.3243 44.8201 14.1725
1 43.7205 47.3705 14.1503
1 43.7618 49.0422 16.4536
1 42.3025 46.5548 16.54
1 45.2355 44.8282 14.1022
1 46.6283 47.3791 14.0668
1 46.6379 48.9914 16.565
1 45.225 46.5171 16.4395
1 48.0959 44.7806 14.0781
1 49.5377 47.3352 14.0592
1 49.5637 49.0211 16.4399
1 48.1179 46.5 16.4073
1 33.6427 49.8007 14.2837
1 36.5106 49.8024 14.2943
1 39.4443 49.8115 14.2293
1 42.3137 49.8697 14.116
1 45.2034 49.8669 14.0547
1 48.0486 49.865 14.0641
1 43.687 33.9755 21.3969
1 46.7665 32.3729 18.842
1 46.6246 33.8163 21.3644
1 49.506 32.4966 19.072
1 49.5887 33.9734 21.3725
1 37.9828 37.419 19.0225
1 37.8448 38.9334 21.4558
1 40.8063 37.3014 19.1156
1 40.8149 38.9996 21.3684
1 39.2785 36.6024 21.4288
1 42.3024 34.8986 18.9911
1 43.642 37.3064 19.0813
1 43.7978 38.9346 21.3836
1 42.2242 36.3888 21.3908
1 45.1315 34.7573 19.0079
1 46.5153 37.2905 18.9433
1 46.5898 38.9455 21.3225
1 45.1458 36.368 21.4142
1 48.0744 34.8551 19.0303
1 49.5177 37.3518 18.9321
1 49.5714 39.027 21.2294
1 48.0403 36.4452 21.3064
1 35.0271 42.3489 19.1006
1 34.9713 44.0188 21.4294
1 36.4911 39.8654 19.0906
1 37.8814 42.3173 19.0299
1 37.8487 43.9706 21.4027
1 36.4127 41.4551 21.4565
1 39.3468 39.8503 19.0763
1 40.7881 42.2837 18.9543
1 40.7784 43.9341 21.3189
1 39.3066 41.4137 21.3674
1 42.2742 39.8156 19.0295
1 43.7258 42.2938 18.9112
1 43.7139 43.9661 21.3116
1 42.2659 41.4586 21.3454
1 45.1732 39.8491 19.0013
1 46.6018 42.3509 18.8644
1 46.643 44.0178 21.2537
1 45.1108 41.5052 21.3412
1 48.0933 39.8094 18.9077
1 49.4797 42.35 18.8939
1 49.5232 43.9848 21.2044
1 48.0829 41.4609 21.2309
1 32.3358 47.4308 19.028
1 32.1872 49.0749 21.3788
1 33.6563 44.9826 19.0532
1 35.0752 47.4364 19.0801
1 35.0775 49.089 21.3615
1 33.5511 46.5513 21.4245
1 36.4434 44.834 19.0082
1 37.9521 47.3793 18.9267
1 37.9403 48.9929 21.3189
1 36.4568 46.5211 21.33
1 39.3729 44.8398 18.9784
1 40.8632 47.3602 18.9338
1 40.8458 49.0019 21.2877
1 39.3114 46.4615 21.3551
1 42.3567 44.824 18.9643
1 43.7462 47.3057 18.8549
1 43.7884 49.0037 21.2718
1 42.2585 46.4922 21.3235
1 45.2773 44.8845 18.8473
1 46.649 47.3668 18.8348
1 46.6868 49.1203 21.2023
1 45.1901 46.5535 21.2031
1 48.0878 44.8772 18.8551
1 49.582 47.3286 18.8079
1 49.6132 49.1249 21.1784
1 48.0759 46.5277 21.1768
1 33.612 49.9813 19.0059
1 36.4572 49.887 19.0084
1 39.3559 49.8664 18.9328
1 42.3386 49.8226 18.8562
1 45.2185 49.8225 18.8551
1 48.1374 49.806 18.8269
1 43.8869 34.0806 26.0725
1 46.8521 32.3936 23.784
1 46.7502 33.9957 26.0553
1 49.6655 32.3989 23.7832
1 49.6302 34.0092 26.0803
1 37.9936 37.3901 23.8786
1 37.9541 39.0592 26.1215
1 40.914 37.2762 23.7483
1 40.8022 38.9406 26.1437
1 39.4145 36.5275 26.0525
1 42.4701 34.8564 23.7727
1 43.7921 37.3148 23.7206
1 43.756 39.0705 26.0019
1 42.3424 36.4657 26.0558
1 45.3087 34.7407 23.7605
1 46.6365 37.3628 23.6936
1 46.6657 39.0281 26.0119
1 45.2256 36.5431 26.0971
1 48.1777 34.8572 23.6564
1 49.5662 37.3702 23.6057
1 49.5522 39.0513 26.0996
1 48.1403 36.498 26.0783
1 35.178 42.4069 23.771
1 35.0778 44.0848 26.1164
1 36.447 39.8806 23.8173
1 37.9299 42.3112 23.758
1 37.9353 44.0294 26.1242
1 36.5224 41.5756 26.0921
1 39.4152 39.8697 23.747
1 40.8799 42.3672 23.7291
1 40.8243 44.0577 26.0414
1 39.403 41.4892 26.0939
1 42.2773 39.8282 23.7483
1 43.7417 42.3364 23.6943
1 43.7593 44.0414 26.0084
1 42.2743 41.5178 26.0835
1 45.2045 39.8077 23.7574
1 46.6359 42.3864 23.6587
1 46.6571 44.0205 26.0254
1 45.203 41.5553 26.011
1 48.0629 39.8421 23.6759
1 49.5283 42.3868 23.6421
1 49.5806 44.0356 25.922
1 48.0027 41.5958 26.0052
1 32.2496 47.5182 23.8344
1 32.2815 49.1379 26.0599
1 33.6743 44.9263 23.8102
1 34.9653 47.4065 23.7133
1 35.1512 49.0761 26.0344
1 33.6721 46.6089 26.1262
1 36.4521 44.9296 23.7421
1 37.9261 47.3706 23.7002
1 38.0164 49.0688 26.0792
1 36.5766 46.5884 26.1319
1 39.3396 44.8496 23.6754
1 40.8066 47.3138 23.6815
1 40.8513 49.1123 25.9405
1 39.3982 46.4964 26.0635
1 42.3022 44.8409 23.6169
1 43.6883 47.3587 23.6463
1 43.7614 49.0511 26.0178
1 42.305 46.536 26.0163
1 45.1767 44.9025 23.5743
1 46.6812 47.3376 23.5799
1 46.7103 49.0353 25.9348
1 45.2574 46.5004 25.9697
1 48.0812 44.8758 23.6099
1 49.5614 47.3404 23.5133
1 49.5505 49.0433 25.931
1 48.1322 46.5454 25.9247
1 33.6421 50.0119 23.7171
1 36.5153 49.9005 23.7186
1 39.438 49.8898 23.6477
1 42.3089 49.8381 23.5885
1 45.2104 49.8876 23.6154
1 48.0919 49.8683 23.564
1 49.7778 32.5467 28.4304
1 52.6195 32.4465 28.3388
1 38.134 37.444 28.524
1 40.9042 37.3081 28.4379
1 42.514 34.8687 28.4782
1 43.7549 37.3663 28.3375
1 45.38 34.9013 28.4605
1 46.7035 37.4373 28.4346
1 48.2055 34.8991 28.4193
1 49.6247 37.3547 28.4463
1 35.2058 42.4658 28.4544
1 36.5783 39.9408 28.4416
1 38.0048 42.4134 28.4795
1 39.4263 39.9406 28.4564
1 40.8996 42.4555 28.4003
1 42.3306 39.8867 28.5054
1 43.7727 42.4051 28.4065
1 45.1525 39.8845 28.3769
1 46.6534 42.3692 28.4453
1 48.0611 39.9031 28.3681
1 49.5237 42.3818 28.3738
1 32.3538 47.5203 28.4988
1 33.8012 44.9946 28.5243
1 35.139 47.5115 28.3793
1 36.579 44.938 28.4246
1 38.0339 47.4554 28.4426
1 39.4417 44.8851 28.3859
1 40.9112 47.4546 28.296
1 42.3723 44.9356 28.3581
1 43.8561 47.3916 28.3273
1 45.2268 44.8817 28.3583
1 46.6942 47.4072 28.3044
1 48.1062 44.9062 28.2942
1 49.6574 47.4154 28.3338
1 33.6762 49.991 28.3918
1 36.6348 49.9515 28.4317
1 39.524 49.9612 28.3048
1 42.3476 50.013 28.3268
1 45.2577 49.8939 28.3297
1 48.1314 49.922 28.2708
1 43.9406 34.0071 30.8047
1 46.7803 34.0217 30.7971
1 49.5998 34.0323 30.7566
1 38.033 39.1002 30.8327
1 40.8903 38.9817 30.8741
1 39.4859 36.5579 30.8752
1 43.7611 38.9781 30.8387
1 42.292 36.4877 30.797
1 46.6528 39.0652 30.7682
1 45.2178 36.5548 30.7712
1 49.6082 39.0451 30.6851
1 48.1691 36.6025 30.7707
1 35.1107 44.1222 30.8538
1 37.9724 44.1193 30.785
1 36.5334 41.5933 30.8275
1 40.8452 44.0613 30.761
1 39.494 41.5006 30.7441
1 43.7091 44.0514 30.7802
1 42.3565 41.5203 30.7757
1 46.6834 44.0771 30.6971
1 45.2359 41.5229 30.7845
1 49.5441 44.1662 30.6914
1 48.0756 41.5773 30.7077
1 32.2664 49.18 30.7786
1 35.1409 49.1797 30.7052
1 33.713 46.6356 30.8381
1 38.0767 49.1572 30.7726
1 36.6025 46.6573 30.7365
1 40.8883 49.152 30.6891
1 39.4483 46.6085 30.7233
1 43.7722 49.1174 30.6414
1 42.3156 46.6443 30.7455
1 46.7279 49.0789 30.6279
1 45.2313 46.5668 30.6904
1 49.6602 49.1826 30.5895
1 48.136 46.6635 30.7036
1 43.9772 34.0707 35.5136
1 46.9049 32.3973 33.1519
1 46.8247 34.0046 35.503
1 49.7062 32.4609 33.138
1 49.6817 34.0549 35.433
1 38.0901 37.4756 33.1948
1 38.0952 39.0325 35.4908
1 40.9369 37.2694 33.1643
1 40.9689 39.0522 35.4645
1 39.5833 36.5081 35.3987
1 42.4947 34.8978 33.102
1 43.8555 37.3746 33.0973
1 43.8455 39.049 35.4926
1 42.45 36.5117 35.4416
1 45.3465 34.8718 33.1064
1 46.742 37.4161 33.1339
1 46.7576 39.1378 35.4718
1 45.3219 36.5493 35.5164
1 48.2149 34.8636 33.1241
1 49.6359 37.4251 33.064
1 49.6475 39.1326 35.3466
1 48.249 36.6173 35.4696
1 35.1965 42.4541 33.2159
1 35.184 44.1187 35.4483
1 36.6561 39.9581 33.1788
1 38.0002 42.4663 33.1263
1 38.0295 44.0989 35.5056
1 36.563 41.5962 35.5135
1 39.4775 39.9367 33.1983
1 40.9881 42.4685 33.1451
1 40.917 44.1173 35.4635
1 39.4517 41.5673 35.4965
1 42.4214 39.9045 33.1888
1 43.8144 42.4203 33.1233
1 43.7894 44.1369 35.4793
1 42.4041 41.6339 35.4743
1 45.2768 39.9453 33.1133
1 46.7523 42.4643 33.0782
1 46.6414 44.1317 35.4312
1 45.228 41.603 35.4502
1 48.223 39.9836 33.0645
1 49.6797 42.5219 33.0244
1 49.5986 44.1652 35.4067
1 48.2081 41.6219 35.4397
1 32.2488 47.6461 33.2131
1 32.3779 49.1643 35.4721
1 33.6774 45.0305 33.1761
1 35.0961 47.4737 33.1136
1 35.1703 49.1356 35.4549
1 33.6176 46.6228 35.5677
1 36.4972 44.9966 33.1636
1 38.0023 47.4688 33.1212
1 38.0572 49.1998 35.4985
1 36.5608 46.6034 35.4478
1 39.4654 44.9374 33.141
1 40.873 47.5301 33.0732
1 40.9451 49.1725 35.42
1 39.4219 46.6457 35.4777
1 42.3104 45.0332 33.0523
1 43.8327 47.4952 33.0005
1 43.8044 49.0643 35.4225
1 42.3426 46.6319 35.3838
1 45.2404 44.9594 33.0768
1 46.7632 47.4841 33.0333
1 46.797 49.1763 35.4305
1 45.3259 46.6288 35.4022
1 48.1626 45.0121 33.0236
1 49.6527 47.504 33.0816
1 49.676 49.1307 35.3946
1 48.1968 46.6762 35.3967
1 33.7141 50.0015 33.1375
1 36.6471 49.9475 33.1117
1 39.5184 50.0264 33.1355
1 42.4304 50.008 33.0428
1 45.3134 49.999 32.9837
1 48.1338 49.9264 33.0269
1 43.9485 34.0291 40.1373
1 46.7742 32.4814 37.7843
1 46.8498 33.9702 40.1392
1 49.5818 32.4654 37.8116
1 49.6268 33.9916 40.1651
1 38.2748 37.4874 37.8178
1 38.1193 39.053 40.1715
1 41.0398 37.3888 37.8399
1 41.0098 39.0136 40.1837
1 39.5354 36.6405 40.1685
1 42.5775 34.9128 37.8093
1 43.9218 37.4072 37.8856
1 43.8988 39.04 40.2003
1 42.4397 36.5193 40.2239
1 45.4188 34.9193 37.8088
1 46.7895 37.4094 37.8434
1 46.7076 39.0956 40.2066
1 45.3318 36.5366 40.215
1 48.2392 34.9588 37.7986
1 49.6771 37.4476 37.7639
1 49.624 39.1015 40.2203
1 48.2431 36.5391 40.113
1 35.2181 42.4834 37.8329
1 35.1542 44.0895 40.2303
1 36.6243 39.9587 37.9512
1 38.0455 42.4786 37.8496
1 38.0703 44.1273 40.1402
1 36.6445 41.6646 40.1947
1 39.5608 39.9177 37.8067
1 40.9587 42.4137 37.8513
1 40.9793 44.0652 40.1457
1 39.5547 41.5733 40.146
1 42.4476 39.8925 37.8111
1 43.833 42.4578 37.7973
1 43.8314 44.0274 40.1653
1 42.3969 41.5539 40.1715
1 45.342 39.8937 37.768
1 46.7555 42.3992 37.7767
1 46.7482 44.0658 40.1434
1 45.2517 41.6018 40.1127
1 48.2211 39.8871 37.8232
1 49.6443 42.4582 37.8326
1 49.6657 44.092 40.2317
1 48.1261 41.5346 40.1469
1 32.3145 47.5023 37.9769
1 32.3039 49.1068 40.2844
1 33.8349 45.054 37.8707
1 35.1564 47.5145 37.8532
1 35.1512 49.1258 40.165
1 33.7841 46.6619 40.2154
1 36.6111 45.0015 37.8287
1 38.12 47.4952 37.8184
1 38.0993 49.2142 40.2314
1 36.6292 46.6209 40.2124
1 39.5743 44.9372 37.8229
1 40.9719 47.447 37.7228
1 40.9767 49.1212 40.0913
1 39.5185 46.6783 40.1873
1 42.452 44.955 37.8672
1 43.8152 47.4103 37.8161
1 43.8999 49.0742 40.1658
1 42.45 46.5636 40.155
1 45.3315 44.9277 37.7986
1 46.7171 47.4611 37.7936
1 46.8018 49.1315 40.1404
1 45.3184 46.5911 40.1564
1 48.1884 44.9515 37.7644
1 49.5577 47.4973 37.8227
1 49.6577 49.1258 40.181
1 48.1794 46.5665 40.1583
1 33.6925 49.9855 37.837
1 36.6468 50.0419 37.8304
1 39.545 50.0184 37.76
1 42.4285 49.9941 37.7992
1 45.324 49.9427 37.7551
1 48.1848 49.9657 37.8118
1 46.7788 32.4648 42.5779
1 49.5825 32.4395 42.4865
1 38.1468 37.49 42.5006
1 40.9279 37.3369 42.5495
1 42.4633 34.8949 42.4358
1 43.9478 37.4075 42.5406
1 45.4053 34.9129 42.4792
1 46.8538 37.4208 42.4888
1 48.2277 34.9094 42.4543
1 49.7128 37.3681 42.5277
1 35.2032 42.4655 42.499
1 36.5741 39.9649 42.5181
1 38.0607 42.4229 42.5718
1 39.5128 39.9385 42.4889
1 40.9311 42.3902 42.5564
1 42.3948 39.856 42.5507
1 43.7777 42.371 42.5116
1 45.2509 39.9092 42.5801
1 46.6435 42.3793 42.5281
1 48.2168 39.9201 42.5406
1 49.6231 42.3873 42.4914
1 32.3074 47.5323 42.5431
1 33.7094 45.0048 42.4484
1 35.203 47.4905 42.5408
1 36.657 44.93 42.5159
1 38.0484 47.3915 42.5852
1 39.4694 44.8694 42.5449
1 40.9789 47.4051 42.4904
1 42.3655 44.9248 42.4838
1 43.8427 47.4705 42.5402
1 45.2627 44.9267 42.5534
1 46.7426 47.4386 42.4992
1 48.1413 44.9079 42.5852
1 49.6008 47.429 42.5311
1 33.7629 49.9456 42.5143
1 36.6159 49.9608 42.492
1 39.5492 49.9177 42.524
1 42.3738 49.9298 42.5119
1 45.2797 49.963 42.5591
1 48.2038 49.915 42.5087
1 43.9757 34.0232 44.8165
1 46.8705 34.0444 44.8344
1 49.6598 33.9589 44.8758
1 37.9494 39.1236 44.8631
1 40.8156 39.0628 44.9028
1 39.5385 36.6049 44.896
1 43.7903 39.0265 44.9417
1 42.3864 36.4785 44.8513
1 46.7575 39.0672 44.9429
1 45.3347 36.526 44.8776
1 49.7374 39.0051 44.8902
1 48.2722 36.5021 44.825
1 35.0523 44.1056 44.8404
1 37.9588 44.1032 44.9444
1 36.4815 41.6356 44.9076
1 40.9096 43.9672 44.9322
1 39.4194 41.5554 44.8993
1 43.7879 44.0536 44.8277
1 42.3997 41.4921 44.94
1 46.7673 44.0416 44.9591
1 45.2897 41.5286 44.8919
1 49.6601 44.0916 44.9839
1 48.2076 41.5442 44.8671
1 32.318 49.1294 44.9121
1 35.1429 49.1359 44.878
1 33.6567 46.6081 44.8145
1 38.1076 49.0756 44.8715
1 36.5273 46.6786 44.8978
1 40.8852 49.0858 44.8795
1 39.4825 46.5679 44.9361
1 43.8067 49.0707 44.9096
1 42.405 46.5544 44.9181
1 46.714 49.1057 44.9152
1 45.3367 46.5738 44.8613
1 49.6441 49.1176 44.8912
1 48.1958 46.5367 44.8817
1 43.9126 34.1026 49.6158
1 46.9365 32.4734 47.2146
1 46.8087 34.029 49.5789
1 49.6875 32.3823 47.3361
1 49.6613 33.8776 49.6683
1 38.1906 37.4819 47.1803
1 37.9561 39.0867 49.6484
1 40.9584 37.2796 47.2548
1 40.8562 39.0051 49.6395
1 39.441 36.6486 49.6286
1 42.5696 34.8587 47.212
1 43.8307 37.3143 47.2364
1 43.7194 38.9626 49.6496
1 42.366 36.4175 49.6171
1 45.4015 34.8747 47.2129
1 46.755 37.3863 47.2439
1 46.7224 39.0212 49.6791
1 45.2819 36.5207 49.6626
1 48.2412 34.881 47.1881
1 49.6615 37.3856 47.1637
1 49.6414 39.038 49.575
1 48.1885 36.4761 49.5585
1 35.0696 42.517 47.3185
1 35.0152 44.1173 49.5882
1 36.5789 39.9816 47.2398
1 37.9157 42.4495 47.3418
1 37.9406 44.0582 49.6162
1 36.3898 41.5622 49.6404
1 39.4449 39.938 47.255
1 40.8321 42.3841 47.2814
1 40.8611 43.9869 49.5953
1 39.3559 41.5048 49.6764
1 42.3291 39.8773 47.3179
1 43.7567 42.3916 47.2257
1 43.7399 44.026 49.6117
1 42.2182 41.4735 49.6269
1 45.1569 39.8589 47.2712
1 46.7373 42.3513 47.2411
1 46.7618 43.9877 49.5571
1 45.1939 41.5134 49.5716
1 48.1809 39.8339 47.2808
1 49.6634 42.3266 47.2291
1 49.6891 44.0051 49.5636
1 48.2409 41.5521 49.6223
1 32.3388 47.4809 47.1791
1 32.2806 49.2717 49.5168
1 33.6362 44.9915 47.2725
1 35.1458 47.4732 47.2288
1 35.0661 49.2081 49.5611
1 33.6098 46.693 49.6048
1 36.5329 44.9575 47.2614
1 38.0598 47.3881 47.2555
1 38.0183 49.1406 49.5808
1 36.5248 46.5935 49.6399
1 39.4578 44.9586 47.2969
1 40.9954 47.4361 47.2387
1 40.8419 49.1093 49.636
1 39.5246 46.5509 49.6362
1 42.3681 44.834 47.2572
1 43.8658 47.3859 47.2078
1 43.8154 49.119 49.6328
1 42.402 46.5983 49.5815
1 45.293 44.8651 47.1922
1 46.7719 47.3981 47.1956
1 46.7062 49.1849 49.6369
1 45.2506 46.4581 49.5076
1 48.1808 44.8244 47.3053
1 49.6612 47.3841 47.2674
1 49.6713 49.0712 49.597
1 48.1718 46.5652 49.6113
1 33.7361 50.0457 47.2165
1 36.5813 49.9334 47.246
1 39.4531 50.0006 47.2263
1 42.3969 49.9757 47.2406
1 45.3243 49.9426 47.282
1 48.2295 49.904 47.2722
1 43.8467 34.0591 54.3826
1 46.7673 32.3975 51.9183
1 46.701 33.9592 54.2792
1 49.5874 32.3079 52.0656
1 49.5256 33.9194 54.2921
1 38.0598 37.4 51.9398
1 37.9246 38.9642 54.3308
1 40.8656 37.2845 51.953
1 40.8602 38.9121 54.3402
1 39.382 36.5697 54.2949
1 42.5036 34.8505 51.9893
1 43.773 37.3617 51.9922
1 43.7968 38.9946 54.3315
1 42.4323 36.4959 54.3637
1 45.323 34.8605 51.9707
1 46.7404 37.3232 51.9572
1 46.7229 38.9719 54.2827
1 45.3055 36.5271 54.3318
1 48.1652 34.8583 51.9147
1 49.6392 37.3204 51.9733
1 49.6003 38.9652 54.303
1 48.1883 36.4864 54.3656
1 35.1047 42.4679 51.942
1 35.0367 44.0518 54.4185
1 36.6003 39.8276 51.9695
1 37.9264 42.4072 51.9831
1 37.9341 44.0252 54.2903
1 36.4646 41.4613 54.3349
1 39.4035 39.8877 52.0971
1 40.8166 42.3413 52.0268
1 40.8593 44.0556 54.3408
1 39.4433 41.5072 54.3764
1 42.3056 39.895 52.0069
1 43.7858 42.404 51.95
1 43.6931 44.0521 54.2894
1 42.326 41.5387 54.3577
1 45.2589 39.825 51.9659
1 46.7518 42.332 51.9609
1 46.6494 44.0021 54.2667
1 45.2268 41.522 54.3315
1 48.2404 39.8265 51.9955
1 49.6171 42.3664 51.9036
1 49.556 44.0762 54.1963
1 48.1711 41.4708 54.2883
1 32.2553 47.5907 51.9595
1 32.2168 49.1668 54.3252
1 33.6514 45.0373 51.9579
1 35.0871 47.4426 51.9301
1 35.0603 49.0548 54.2724
1 33.5598 46.6428 54.3376
1 36.4437 44.8813 52.0161
1 37.9346 47.396 51.9466
1 37.9182 49.065 54.2718
1 36.4916 46.5938 54.3203
1 39.3609 44.9561 52.0035
1 40.8887 47.4492 51.9908
1 40.8106 49.0544 54.3416
1 39.463 46.5219 54.3334
1 42.2613 44.913 51.935
1 43.8563 47.4433 51.9364
1 43.8289 49.0442 54.2705
1 42.3861 46.5492 54.3164
1 45.224 44.8591 51.9277
1 46.6522 47.3507 51.9149
1 46.7072 49.1016 54.3222
1 45.3249 46.5491 54.3078
1 48.1246 44.899 51.9254
1 49.6387 47.332 51.9459
1 49.6043 49.0331 54.2197
1 48.1746 46.5914 54.2227
1 33.667 50.0815 51.948
1 36.5486 49.9892 51.9676
1 39.3743 49.8778 51.9538
1 42.3585 49.9084 51.9733
1 45.2875 49.9208 51.9587
1 48.1623 49.7988 51.9302
1 43.9804 33.9587 59.1217
1 46.8058 32.4543 56.7071
1 46.7896 33.994 59.1116
1 49.6219 32.4395 56.6876
1 49.7487 33.9341 59.0672
1 38.0294 37.3392 56.7017
1 37.97 38.9176 58.9883
1 40.886 37.2037 56.7306
1 40.8498 38.9404 59.0017
1 39.4596 36.5682 59.0484
1 42.4914 34.8805 56.7156
1 43.8193 37.3489 56.6421
1 43.7966 38.9858 59.0803
1 42.3862 36.4673 59.0859
1 45.338 34.8321 56.6728
1 46.7472 37.3852 56.6462
1 46.7412 39.0206 58.9876
1 45.3096 36.4896 59.0984
1 48.2111 34.8623 56.7122
1 49.6424 37.3539 56.5942
1 49.6647 38.9994 59.0225
1 48.1916 36.5467 59.043
1 35.2148 42.3144 56.6999
1 35.1745 43.968 58.9972
1 36.6251 39.8048 56.6778
1 38.0079 42.3166 56.6895
1 37.9994 43.9008 59.0882
1 36.5026 41.4783 59.0327
1 39.4273 39.7857 56.6698
1 40.8741 42.3537 56.7432
1 40.9663 44.0221 59.0835
1 39.4321 41.4377 59.0705
1 42.3392 39.8542 56.7005
1 43.784 42.3901 56.6887
1 43.8125 43.9912 59.0723
1 42.3938 41.496 59.0368
1 45.2059 39.8562 56.6188
1 46.7399 42.295 56.6301
1 46.6557 44.0288 59.019
1 45.2407 41.498 59.0281
1 48.2199 39.8771 56.704
1 49.6161 42.4037 56.5967
1 49.6675 44.0252 59.0168
1 48.202 41.5231 58.9622
1 32.2691 47.4437 56.7342
1 32.2707 49.1355 59.1457
1 33.6866 44.9274 56.7019
1 35.117 47.4142 56.6899
1 35.0649 49.0158 59.0051
1 33.6543 46.5809 59.0436
1 36.4874 44.8864 56.6614
1 37.9848 47.3459 56.654
1 38.0124 48.974 59.0494
1 36.5363 46.4589 59.0835
1 39.4167 44.836 56.7539
1 40.9356 47.3633 56.6268
1 40.9126 49.002 59.0089
1 39.4251 46.5723 59.0699
1 42.2849 44.87 56.6985
1 43.7714 47.3287 56.6955
1 43.8596 49.0576 59.0226
1 42.3378 46.5495 59.0433
1 45.1873 44.8313 56.6464
1 46.6588 47.3467 56.6757
1 46.7869 49.0985 59.022
1 45.2585 46.512 59.0553
1 48.1344 44.8504 56.6003
1 49.5998 47.3195 56.5959
1 49.6698 49.021 59.0072
1 48.129 46.5156 58.9756
1 33.6154 49.9081 56.6733
1 36.5219 49.9199 56.6346
1 39.4656 49.8528 56.6631
1 42.3646 49.8254 56.6935
1 45.3361 49.9089 56.6608
1 48.1922 49.8624 56.666
1 44.0128 34.0093 63.8515
1 46.9464 32.5096 61.4456
1 46.8535 34.0238 63.8566
1 49.7884 32.4394 61.4353
1 49.7277 33.9955 63.6854
1 38.046 37.3056 61.4184
1 38.0363 38.9944 63.7729
1 40.9272 37.2693 61.4088
1 40.9804 38.9974 63.8178
1 39.4818 36.5942 63.7397
1 42.5749 34.8319 61.524
1 43.7949 37.3308 61.4076
1 43.8279 39.0128 63.7837
1 42.3907 36.4129 63.7827
1 45.3826 34.8431 61.4685
1 46.7959 37.3601 61.4669
1 46.7765 38.984 63.7234
1 45.3897 36.4384 63.7749
1 48.2778 34.9635 61.3723
1 49.6587 37.4339 61.3777
1 49.6226 39.0193 63.7567
1 48.2939 36.4557 63.7488
1 35.1704 42.4036 61.4035
1 35.1916 43.9665 63.7757
1 36.5268 39.8318 61.4357
1 37.961 42.285 61.384
1 38.0768 43.9768 63.7574
1 36.5888 41.4876 63.818
1 39.3761 39.7811 61.3871
1 40.872 42.2903 61.3783
1 40.9262 44.0217 63.7693
1 39.5033 41.4701 63.7709
1 42.3552 39.7897 61.4094
1 43.8055 42.3163 61.3827
1 43.8535 44.0033 63.7858
1 42.371 41.5242 63.7583
1 45.2639 39.787 61.3401
1 46.7095 42.3211 61.3845
1 46.7589 44.0494 63.7847
1 45.3297 41.5454 63.6877
1 48.1774 39.8898 61.3715
1 49.6604 42.3927 61.3324
1 49.6279 44.0931 63.7909
1 48.2419 41.546 63.7628
1 32.267 47.4171 61.4234
1 32.3643 48.9254 63.7444
1 33.732 44.9263 61.4006
1 35.1186 47.3839 61.4252
1 35.1147 49.0501 63.7917
1 33.6935 46.5022 63.698
1 36.5666 44.845 61.4428
1 37.9924 47.3191 61.4457
1 38.0661 49.0457 63.7409
1 36.5799 46.4768 63.7916
1 39.4103 44.8441 61.4007
1 40.8879 47.327 61.4858
1 40.9158 49.0656 63.8171
1 39.4555 46.5629 63.8051
1 42.3848 44.8181 61.4408
1 43.8509 47.3756 61.4153
1 43.8106 48.9279 63.775
1 42.3759 46.5161 63.7616
1 45.2695 44.8748 61.378
1 46.7318 47.3583 61.4158
1 46.7435 49.1008 63.723
1 45.3242 46.5115 63.8446
1 48.1183 44.9042 61.3398
1 49.6128 47.3651 61.3611
1 49.7084 49.0416 63.8059
1 48.2071 46.5953 63.7389
1 33.7332 49.9148 61.4692
1 36.5867 49.8802 61.4203
1 39.4284 49.7698 61.4156
1 42.3927 49.9064 61.3966
1 45.311 49.8754 61.3678
1 48.2253 49.9006 61.4394
1 44.0291 34.0729 68.4847
1 49.7094 32.4071 66.1934
1 46.8952 33.9837 68.5059
1 52.5108 32.5231 66.1652
1 49.7962 34.0985 68.52
1 38.2176 37.4525 66.1193
1 38.0336 38.9929 68.4826
1 41.0101 37.2985 66.1616
1 40.8872 39.0034 68.5667
1 39.6006 36.6079 68.5214
1 42.5126 34.8649 66.0973
1 43.9304 37.3091 66.0851
1 43.9071 38.9498 68.5052
1 42.4623 36.4028 68.5506
1 45.3675 34.8425 66.0853
1 46.874 37.3091 66.1427
1 46.7762 38.981 68.4652
1 45.3576 36.5557 68.5074
1 48.2752 34.7865 66.1473
1 49.7177 37.271 66.1457
1 49.6815 39.0933 68.485
1 48.284 36.4967 68.5347
1 35.2201 42.3831 66.1777
1 35.1456 44.0031 68.5271
1 36.6315 39.8876 66.1515
1 38.0813 42.3844 66.1057
1 37.9306 43.9261 68.531
1 36.5815 41.4384 68.4936
1 39.5216 39.8793 66.0897
1 40.9671 42.3335 66.2085
1 40.8478 43.9385 68.6221
1 39.4531 41.48 68.4842
1 42.3924 39.7917 66.1532
1 43.8657 42.2864 66.0984
1 43.8256 43.9328 68.5477
1 42.3888 41.4945 68.5293
1 45.3257 39.7502 66.0874
1 46.7593 42.2589 66.0518
1 46.7118 44.0037 68.5276
1 45.2652 41.4931 68.4687
1 48.2394 39.8264 66.0739
1 49.6041 42.3728 66.1504
1 49.6375 44.0381 68.5114
1 48.1334 41.4603 68.5189
1 32.2806 47.2466 66.0818
1 32.3461 48.9161 68.4008
1 33.824 44.8805 66.0441
1 35.1089 47.3033 66.1401
1 35.163 48.983 68.462
1 33.7197 46.4501 68.5334
1 36.583 44.9119 66.184
1 37.9945 47.3654 66.1906
1 38.0482 49.046 68.5914
1 36.5677 46.4943 68.5577
1 39.4956 44.8655 66.187
1 40.8962 47.3953 66.1696
1 40.9229 48.999 68.5424
1 39.4814 46.5452 68.589
1 42.3555 44.7965 66.2313
1 43.8765 47.277 66.1994
1 43.8098 49.0202 68.4602
1 42.322 46.5065 68.5139
1 45.2816 44.7774 66.2199
1 46.7201 47.3132 66.1564
1 46.7036 49.0693 68.509
1 45.2566 46.5092 68.5489
1 48.1095 44.8704 66.1564
1 49.6227 47.3688 66.1522
1 49.6072 49.0689 68.5525
1 48.1725 46.5135 68.5811
1 33.7178 49.8413 66.1325
1 36.5852 49.815 66.1649
1 39.4199 49.8698 66.1387
1 42.4083 49.8144 66.0817
1 45.3579 49.9633 66.0556
1 48.147 49.8624 66.116
1 43.8525 34.016 73.2954
1 46.9688 32.399 70.8112
1 46.7648 33.9413 73.1659
1 49.7557 32.5054 70.769
1 49.6364 33.9387 73.1711
1 38.1727 37.3116 70.8468
1 37.9844 38.8756 73.3395
1 40.951 37.2396 70.9191
1 40.8897 38.9645 73.3095
1 39.4733 36.4746 73.2824
1 42.5263 34.726 70.8964
1 43.8088 37.2637 70.9198
1 43.7644 38.8653 73.2312
1 42.3706 36.3653 73.3019
1 45.3742 34.8169 70.8471
1 46.7823 37.3139 70.8928
1 46.7435 38.9115 73.2699
1 45.3085 36.4233 73.2507
1 48.207 34.894 70.8811
1 49.7415 37.3325 70.8622
1 49.7103 38.98 73.2689
1 48.28 36.477 73.2625
1 35.1606 42.354 70.9164
1 35.096 43.9879 73.2365
1 36.6543 39.78 70.8247
1 37.9954 42.3301 70.9053
1 37.9476 44.0034 73.3152
1 36.5631 41.4778 73.2584
1 39.4303 39.7783 70.9435
1 40.8228 42.229 70.8986
1 40.8839 43.951 73.2821
1 39.4504 41.4664 73.3323
1 42.398 39.7974 70.8365
1 43.7896 42.3048 70.8944
1 43.8875 43.9401 73.2748
1 42.3198 41.3964 73.2861
1 45.2698 39.82 70.9237
1 46.7138 42.3169 70.8358
1 46.7427 43.9436 73.2518
1 45.2992 41.3937 73.2878
1 48.1997 39.7919 70.8662
1 49.6536 42.3038 70.8774
1 49.6328 44.0313 73.2613
1 48.1762 41.4106 73.191
1 32.3346 47.3855 70.8336
1 32.3011 48.9685 73.2754
1 33.7016 44.8568 70.862
1 35.0976 47.3512 70.9093
1 35.2005 49.0365 73.2436
1 33.5827 46.5331 73.2627
1 36.5896 44.8622 70.9493
1 37.9814 47.3284 70.8728
1 38.0781 49.0738 73.3072
1 36.4622 46.5436 73.2952
1 39.4751 44.7677 70.9288
1 40.8734 47.369 70.9329
1 40.8953 49.0462 73.2859
1 39.421 46.4819 73.2499
1 42.349 44.7718 70.9269
1 43.7505 47.3642 70.8831
1 43.7422 49.0803 73.2536
1 42.311 46.5143 73.2742
1 45.2549 44.7621 70.9154
1 46.6958 47.3719 70.9038
1 46.6896 49.0475 73.2529
1 45.2395 46.4576 73.1902
1 48.1729 44.8341 70.9986
1 49.6028 47.3577 70.9215
1 49.6097 49.09 73.265
1 48.1799 46.5427 73.2752
1 33.6879 49.8736 70.8585
1 36.5631 49.8373 70.9467
1 39.4547 49.9084 70.9062
1 42.3845 49.8889 70.8625
1 45.1728 49.8763 70.847
1 48.1622 49.8808 70.8817
1 43.8354 34.0516 77.9455
1 46.9298 32.3982 75.6173
1 46.7109 33.8739 77.9804
1 49.7215 32.4181 75.5064
1 49.6273 33.9011 77.9332
1 38.1228 37.368 75.7614
1 38.0521 38.9587 78.0812
1 40.9624 37.2351 75.6327
1 40.9251 39.015 77.9669
1 39.5863 36.5613 78.1032
1 42.4496 34.7487 75.6664
1 43.8705 37.24 75.6416
1 43.8492 39.0014 78.0155
1 42.3972 36.482 78.0256
1 45.3391 34.7223 75.6358
1 46.688 37.3039 75.6039
1 46.717 39.0229 77.9664
1 45.2901 36.4613 78.04
1 48.1897 34.7866 75.6012
1 49.6203 37.3859 75.5774
1 49.6826 38.9719 77.9153
1 48.1584 36.4345 77.9792
1 35.1826 42.3503 75.7468
1 35.0983 44.0742 78.064
1 36.6356 39.7655 75.6533
1 37.9677 42.3108 75.6174
1 38.0289 44.0326 78.0538