5538
Atoms. Timestep: 60000
1 43.7228 33.9578 7.39878
1 45.4008 32.0228 6.33527
1 46.5566 34.1962 7.15715
1 48.0672 31.8367 7.04611
1 49.4379 34.216 7.18923
1 36.5354 36.6444 7.34978
1 38.0891 38.9607 7.2822
1 40.8003 37.3859 4.90814
1 40.9222 38.9817 7.29152
1 39.3914 36.48 7.23707
1 42.2816 34.8102 5.08496
1 43.5869 37.3166 4.89652
1 43.7818 39.0125 7.1583
1 42.2564 36.5475 7.27677
1 45.034 34.7537 4.93811
1 46.4518 37.3214 4.80948
1 46.6622 39.1191 7.21063
1 45.049 36.5259 7.20691
1 47.9362 34.8283 4.78403
1 49.4067 37.3436 4.78208
1 49.5064 39.084 7.13792
1 48.0288 36.5931 7.09941
1 33.8416 41.4933 7.18094
1 35.2402 44.0322 7.22733
1 35.3022 39.1549 7.18867
1 38.0174 42.3421 4.95305
1 38.0769 43.9982 7.27264
1 36.6571 41.5518 7.28658
1 39.3676 39.945 4.94727
1 40.9312 42.3946 4.95802
1 40.9233 43.9529 7.31399
1 39.4998 41.5509 7.30128
1 42.2181 39.8609 4.95564
1 43.7572 42.3639 4.8532
1 43.7883 43.9981 7.1648
1 42.3416 41.4293 7.25465
1 45.0713 39.834 4.83713
1 46.6002 42.4048 4.80257
1 46.6352 44.0708 7.0849
1 45.1854 41.5538 7.15635
1 48.0096 39.9008 4.77949
1 49.5192 42.3893 4.76472
1 49.4874 44.0568 7.09757
1 48.0531 41.6044 7.12065
1 31.0063 46.2217 7.49633
1 32.2939 48.8281 7.26806
1 32.4889 43.9066 7.14125
1 35.246 47.4162 5.0691
1 35.0983 48.8887 7.47122
1 33.7231 46.3567 7.27636
1 36.5867 44.8937 5.05988
1 37.995 47.2761 5.02135
1 38.0197 48.9791 7.22918
1 36.6427 46.4773 7.32694
1 39.5154 44.8273 4.92649
1 40.7514 47.3749 4.928
1 40.8383 49.001 7.20962
1 39.491 46.4757 7.27443
1 42.3722 44.951 4.89346
1 43.7466 47.493 4.91223
1 43.6777 49.0465 7.18881
1 42.3359 46.5131 7.22048
1 45.2023 44.9194 4.824
1 46.644 47.417 4.76051
1 46.5946 49.0232 7.08094
1 45.2204 46.6046 7.15492
1 48.0776 44.9866 4.70472
1 49.5303 47.446 4.71992
1 49.4366 49.0348 7.07893
1 48.0835 46.5088 7.10267
1 33.7488 49.7358 5.09221
1 36.6065 49.8814 5.04993
1 39.374 49.777 4.90214
1 42.2663 49.906 4.85486
1 45.1799 49.8642 4.71044
1 48.0585 49.8543 4.74665
1 43.8203 34.0224 12.0534
1 46.5436 32.3472 9.26618
1 46.7401 34.0271 11.891
1 49.4388 32.5052 9.46597
1 49.6198 34.0418 11.8157
1 37.9654 37.3791 9.62584
1 38.0455 39.023 11.9672
1 40.7899 37.3413 9.57773
1 40.9075 39.0073 11.9199
1 39.3614 36.589 11.965
1 42.3467 35.0319 9.63131
1 43.761 37.4465 9.52386
1 43.8361 38.9777 11.9607
1 42.3441 36.5072 11.8862
1 45.2228 34.8601 9.59053
1 46.6083 37.388 9.48869
1 46.7577 39.0466 11.8716
1 45.1774 36.4703 11.8782
1 48.0828 34.9521 9.50161
1 49.5041 37.4185 9.53309
1 49.6195 39.026 11.8816
1 48.1344 36.5116 11.843
1 35.0225 42.3327 9.53658
1 35.0666 43.954 12.0146
1 36.6109 39.8359 9.60621
1 37.9332 42.2809 9.65307
1 37.9772 43.9975 11.9996
1 36.4986 41.5455 11.9586
1 39.475 39.9268 9.62364
1 40.9244 42.306 9.6328
1 40.8569 44.0219 12.0161
1 39.4487 41.488 11.9801
1 42.3436 39.8535 9.65031
1 43.8107 42.3712 9.58927
1 43.8448 44.0525 11.9495
1 42.4072 41.4943 11.9779
1 45.2682 39.9188 9.63981
1 46.6284 42.3608 9.48936
1 46.6615 44.018 11.899
1 45.2961 41.5569 11.9479
1 48.1107 39.905 9.50922
1 49.5361 42.4081 9.44366
1 49.5203 44.0304 11.8019
1 48.1643 41.4725 11.8133
1 32.2245 47.2453 9.67587
1 32.26 48.9144 12.1195
1 33.6678 44.7901 9.57002
1 35.0754 47.2472 9.71951
1 35.1314 48.8429 12.1106
1 33.6173 46.4393 11.9788
1 36.4575 44.6826 9.70554
1 37.9283 47.2895 9.62775
1 38.0249 48.8796 12.0039
1 36.489 46.3676 12.0612
1 39.413 44.8238 9.61897
1 40.8832 47.386 9.64332
1 40.8608 48.9371 11.9873
1 39.4185 46.4187 11.9759
1 42.3268 44.8016 9.65759
1 43.7743 47.3732 9.56786
1 43.7189 48.9358 11.9168
1 42.3239 46.4511 11.9981
1 45.1942 44.9091 9.49726
1 46.6272 47.3566 9.50083
1 46.7015 49.002 11.8428
1 45.2522 46.484 11.9027
1 48.0004 44.8509 9.49355
1 49.504 47.3572 9.49366
1 49.5095 48.9895 11.8461
1 48.1862 46.5028 11.8562
1 33.4602 49.7668 9.7883
1 36.5801 49.7461 9.73573
1 39.4729 49.851 9.61532
1 42.3204 49.882 9.56936
1 45.1603 49.83 9.56619
1 48.0485 49.8897 9.47358
1 43.6855 34.0704 16.6567
1 47.0023 32.4585 14.3252
1 46.6533 34.0231 16.6282
1 49.7607 32.3563 14.1271
1 49.5359 33.9988 16.4566
1 38.0528 37.4128 14.337
1 37.9604 39.0171 16.616
1 40.8491 37.4165 14.2249
1 40.843 39.0048 16.6449
1 39.3902 36.5376 16.6643
1 42.3429 34.9594 14.2294
1 43.7928 37.3761 14.3117
1 43.7896 38.9542 16.5965
1 42.2368 36.5466 16.6106
1 45.2833 34.7764 14.3384
1 46.6769 37.3275 14.1901
1 46.7523 38.9203 16.5502
1 45.2298 36.53 16.5746
1 48.2003 34.901 14.2001
1 49.5167 37.3919 14.202
1 49.529 39.1152 16.5189
1 48.0914 36.4738 16.5714
1 35.2617 42.3484 14.3415
1 35.1306 44.0733 16.752
1 36.6029 39.8611 14.3526
1 38.055 42.3366 14.3435
1 38.0022 44.0635 16.7517
1 36.5604 41.5848 16.7907
1 39.5129 39.9161 14.3264
1 41.0354 42.3846 14.3179
1 40.8642 43.96 16.7187
1 39.4044 41.4688 16.7385
1 42.3687 39.8104 14.2552
1 43.8516 42.3239 14.3463
1 43.8182 44.0136 16.7217
1 42.381 41.443 16.647
1 45.2859 39.8834 14.266
1 46.6809 42.3721 14.2724
1 46.6377 44.0513 16.6597
1 45.2347 41.4894 16.6519
1 48.1368 39.8962 14.2138
1 49.4706 42.4101 14.1918
1 49.5025 44.0572 16.6272
1 48.0475 41.5412 16.5992
1 32.3405 47.3101 14.3641
1 32.3066 48.9464 16.7415
1 33.7823 44.8281 14.3207
1 35.0999 47.2343 14.4293
1 35.1096 48.9934 16.879
1 33.6813 46.4817 16.7621
1 36.5783 44.7504 14.4218
1 37.9629 47.3195 14.4308
1 38.1234 48.9967 16.7919
1 36.5442 46.5443 16.8422
1 39.4262 44.8629 14.4339
1 40.9146 47.3245 14.2725
1 41.0512 49.0029 16.6581
1 39.4767 46.5833 16.7293
1 42.3761 44.8499 14.3702
1 43.8013 47.3047 14.3534
1 43.8539 49.0077 16.6454
1 42.3319 46.5303 16.6833
1 45.2112 44.8505 14.2879
1 46.6674 47.3166 14.2448
1 46.6866 48.9985 16.581
1 45.2283 46.5508 16.6364
1 48.0983 44.8792 14.2724
1 49.6001 47.3714 14.2663
1 49.5936 49.031 16.5975
1 48.1415 46.5799 16.6715
1 33.7353 49.7602 14.4899
1 36.6328 49.7415 14.4744
1 39.4616 49.7614 14.3668
1 42.4174 49.8907 14.3299
1 45.3196 49.8289 14.278
1 48.171 49.8949 14.2688
1 43.6942 34.113 21.2951
1 46.6928 32.4449 18.8744
1 46.5804 33.9228 21.2318
1 49.5177 32.4388 18.8616
1 49.5017 33.981 21.2691
1 37.9694 37.3667 19.0045
1 37.9992 39.0066 21.3659
1 40.8653 37.3748 18.997
1 40.8615 38.9938 21.3769
1 39.425 36.5826 21.3193
1 42.2757 34.9645 18.9218
1 43.7002 37.3817 18.9115
1 43.7054 38.9994 21.332
1 42.2771 36.5505 21.3517
1 45.1617 34.8689 18.9503
1 46.6159 37.3805 18.9063
1 46.5757 38.9874 21.2549
1 45.1815 36.5234 21.3235
1 48.144 34.8027 18.9006
1 49.5372 37.3628 18.8762
1 49.4674 39.0174 21.296
1 48.0673 36.4402 21.2722
1 35.2238 42.4029 19.0897
1 35.1425 44.0667 21.4853
1 36.6063 39.9136 19.0882
1 38.0531 42.4033 19.0825
1 38.0625 44.0005 21.4267
1 36.5736 41.5077 21.44
1 39.4259 39.8716 18.9902
1 40.8904 42.3376 19.0183
1 40.9759 43.9829 21.3774
1 39.414 41.5094 21.4079
1 42.2938 39.9275 19.0342
1 43.7705 42.4305 19.0097
1 43.8247 44.0352 21.365
1 42.3175 41.4715 21.4656
1 45.1359 39.8325 18.9389
1 46.6673 42.4129 18.9517
1 46.7487 44.0371 21.3237
1 45.2295 41.5437 21.3079
1 48.0588 39.8425 18.9042
1 49.5685 42.3279 18.9178
1 49.5284 43.9766 21.2672
1 48.0536 41.4584 21.2552
1 32.3493 47.428 19.1083
1 32.3304 49.1416 21.4609
1 33.7858 44.9118 19.1341
1 35.1472 47.3768 19.188
1 35.1373 49.1209 21.4602
1 33.6856 46.499 21.4615
1 36.6434 44.8711 19.1096
1 38.0764 47.3706 19.1363
1 37.9977 48.9898 21.4972
1 36.6269 46.4549 21.4956
1 39.5615 44.9402 19.0603
1 40.9858 47.412 19.046
1 40.8572 49.0076 21.497
1 39.4667 46.4697 21.4125
1 42.3332 44.9022 19.0338
1 43.8023 47.3479 19.0263
1 43.8497 48.9851 21.3197
1 42.3305 46.5722 21.3572
1 45.2972 44.9071 19.0195
1 46.7197 47.3867 18.9305
1 46.7631 49.0023 21.3821
1 45.2277 46.5832 21.3544
1 48.1231 44.8386 18.9752
1 49.6205 47.313 18.9756
1 49.5622 48.9239 21.3267
1 48.1436 46.4637 21.3287
1 33.6966 49.8971 19.1287
1 36.6246 49.8629 19.1008
1 39.6056 49.8414 19.1014
1 42.5202 49.9381 19.0083
1 45.3686 49.8022 18.9565
1 48.2174 49.77 18.988
1 43.7169 34.0727 26.0141
1 46.481 32.4487 23.6497
1 46.5992 34.0079 25.9927
1 49.364 32.3869 23.5673
1 49.5422 33.8947 25.9781
1 37.9023 37.4241 23.7524
1 37.9576 39.1021 26.1344
1 40.8039 37.3232 23.7046
1 40.8309 39.025 26.0065
1 39.3996 36.5841 26.0391
1 42.3356 34.9239 23.6576
1 43.6882 37.3333 23.6523
1 43.8034 39.0287 26.0704
1 42.2729 36.5041 26.0232
1 45.2106 34.9042 23.7008
1 46.6229 37.4196 23.6357
1 46.727 38.9707 26.0271
1 45.2274 36.486 26.0773
1 48.0035 34.7836 23.6779
1 49.4862 37.3602 23.6318
1 49.5858 38.9752 25.9813
1 48.0985 36.4463 25.971
1 35.1742 42.4245 23.875
1 35.1428 43.9883 26.179
1 36.5232 39.8949 23.7604
1 38.0249 42.357 23.8078
1 38.0365 43.9612 26.1779
1 36.5949 41.5615 26.2021
1 39.3728 39.8906 23.7911
1 40.8273 42.4103 23.7513
1 40.9555 44.0834 26.1179
1 39.4231 41.5555 26.1467
1 42.314 39.8641 23.7643
1 43.8455 42.3758 23.7679
1 43.8624 44.0103 26.0768
1 42.3713 41.5939 26.0582
1 45.1957 39.8726 23.7164
1 46.6874 42.3107 23.6715
1 46.7002 43.9812 26.0768
1 45.3089 41.5398 26.1279
1 48.0673 39.8573 23.6401
1 49.5239 42.3104 23.6287
1 49.5389 43.9964 26.0088
1 48.1309 41.5118 26.0054
1 32.3726 47.4263 23.7313
1 32.382 49.0671 26.1251
1 33.6702 44.8721 23.8092
1 35.1719 47.3379 23.7536
1 35.2137 49.0206 26.1382
1 33.6768 46.5629 26.0995
1 36.5851 44.8177 23.8468
1 38.1303 47.3921 23.8298
1 38.1201 48.9956 26.1563
1 36.5834 46.4664 26.1438
1 39.4145 44.8576 23.8421
1 40.9563 47.2855 23.8072
1 40.9991 48.949 26.1106
1 39.5233 46.4766 26.0985
1 42.4065 44.881 23.6885
1 43.8397 47.3354 23.731
1 43.854 49.0161 26.0928
1 42.4411 46.5027 26.1076
1 45.3185 44.8979 23.741
1 46.7631 47.321 23.8078
1 46.749 49.0258 26.1023
1 45.29 46.5857 26.0695
1 48.1073 44.7975 23.7405
1 49.6324 47.3616 23.6953
1 49.6182 49.0196 26.0439
1 48.1619 46.5051 26.1366
1 33.5867 49.9422 23.8362
1 36.6342 49.859 23.8188
1 39.5249 49.9309 23.8138
1 42.4306 49.8021 23.6917
1 45.2444 49.7717 23.6684
1 48.1375 49.8631 23.6738
1 49.5602 32.3594 28.4467
1 52.2543 32.3546 28.3332
1 38.0746 37.4369 28.4156
1 40.8538 37.4093 28.3638
1 42.363 34.9458 28.4229
1 43.8247 37.3458 28.4376
1 45.2278 34.7781 28.4279
1 46.6164 37.2907 28.4236
1 48.0393 34.7799 28.2668
1 49.5022 37.3296 28.2679
1 35.2149 42.3385 28.6043
1 36.5671 39.8546 28.5002
1 38.0636 42.3664 28.6039
1 39.4691 39.88 28.4178
1 40.9467 42.3212 28.4447
1 42.3531 39.8791 28.3807
1 43.8386 42.4037 28.4643
1 45.3048 39.8249 28.415
1 46.7139 42.3787 28.4606
1 48.202 39.8544 28.3951
1 49.6552 42.3361 28.309
1 32.4294 47.4653 28.4807
1 33.8334 44.8531 28.4981
1 35.2181 47.3483 28.4796
1 36.6828 44.8476 28.5109
1 38.109 47.4028 28.4633
1 39.5424 44.7875 28.4641
1 40.9974 47.4004 28.3922
1 42.3849 44.8748 28.4641
1 43.8456 47.4092 28.4715
1 45.2637 44.8876 28.519
1 46.7511 47.311 28.4365
1 48.22 44.8506 28.3916
1 49.6435 47.3345 28.3823
1 33.8083 49.9146 28.4637
1 36.6801 49.8892 28.4399
1 39.5503 49.8482 28.4887
1 42.4176 49.8977 28.4355
1 45.2543 49.8349 28.4254
1 48.2189 49.7609 28.4586
1 43.748 34.133 30.8921
1 46.6168 34.0775 30.7187
1 49.5285 33.9878 30.6935
1 38.0676 39.0673 30.7544
1 40.9226 39.0366 30.7868
1 39.4611 36.6161 30.8041
1 43.8183 39.0385 30.7446
1 42.3136 36.4935 30.7936
1 46.7195 39.072 30.7189
1 45.2567 36.5351 30.7446
1 49.5738 38.9791 30.7881
1 48.1164 36.4962 30.7447
1 35.1319 44.0705 30.8153
1 38.009 44.0024 30.8763
1 36.6232 41.5496 30.8718
1 41.0044 43.9691 30.8307
1 39.5286 41.5043 30.8322
1 43.8518 44.0759 30.8034
1 42.3736 41.5111 30.7545
1 46.731 44.0396 30.747
1 45.2475 41.5133 30.7851
1 49.6491 44.0297 30.8041
1 48.1568 41.5317 30.7531
1 32.3778 49.0938 30.8181
1 35.2111 49.0149 30.8645
1 33.7576 46.5093 30.8153
1 38.0686 48.9328 30.8411
1 36.6035 46.5041 30.8151
1 40.935 48.9509 30.8123
1 39.515 46.4421 30.7708
1 43.9104 49.1189 30.8161
1 42.4239 46.5616 30.8168
1 46.7137 49.0703 30.7627
1 45.2937 46.551 30.8611
1 49.5901 48.9631 30.8421
1 48.2311 46.5316 30.7882
1 43.7579 34.036 35.4377
1 46.719 32.4592 33.0452
1 46.666 33.9173 35.4541
1 49.4631 32.4111 33.0139
1 49.5806 33.9607 35.4368
1 37.9972 37.4224 33.2208
1 38.0628 39.0706 35.5415
1 40.9137 37.4305 33.1873
1 40.8763 39.0798 35.4408
1 39.513 36.5867 35.5263
1 42.3784 35.0036 33.18
1 43.791 37.3993 33.1232
1 43.8068 39.0522 35.4931
1 42.3459 36.622 35.5645
1 45.2251 34.8273 33.1281
1 46.6725 37.3446 33.0842
1 46.6883 38.9567 35.5208
1 45.2845 36.5002 35.4513
1 48.1428 34.8609 33.0801
1 49.619 37.3598 33.068
1 49.5818 38.9807 35.4093
1 48.149 36.4907 35.3681
1 35.2363 42.4649 33.1963
1 35.2026 44.1489 35.5724
1 36.6096 39.8976 33.2142
1 38.1297 42.3837 33.211
1 37.9769 44.0376 35.5665
1 36.596 41.592 35.4883
1 39.4349 39.8755 33.0953
1 41.0039 42.4577 33.1867
1 40.9192 44.1074 35.5554
1 39.516 41.6102 35.4737
1 42.3765 39.9511 33.126
1 43.8432 42.3463 33.1129
1 43.8244 44.073 35.4925
1 42.3526 41.5866 35.5351
1 45.294 39.8535 33.1362
1 46.7275 42.2903 33.0912
1 46.7322 44.0215 35.4844
1 45.31 41.551 35.5065
1 48.1856 39.8336 33.1138
1 49.6127 42.2455 33.1064
1 49.5741 43.9719 35.4328
1 48.1739 41.4868 35.5432
1 32.4367 47.5097 33.2175
1 32.3696 49.0903 35.5703
1 33.785 44.9016 33.2162
1 35.2131 47.3596 33.1137
1 35.1052 49.0756 35.588
1 33.7451 46.6392 35.5102
1 36.585 44.9371 33.1716
1 38.0622 47.3951 33.1707
1 38.0331 49.0795 35.5626
1 36.6139 46.6101 35.5293
1 39.4583 44.8826 33.1982
1 40.9097 47.3503 33.1859
1 40.9162 49.0428 35.5556
1 39.4673 46.5565 35.5871
1 42.3583 44.9504 33.1973
1 43.825 47.3856 33.1204
1 43.8547 49.0167 35.5535
1 42.3674 46.5973 35.5591
1 45.2473 44.8094 33.1902
1 46.6933 47.2873 33.1024
1 46.7142 48.9776 35.5756
1 45.2977 46.4885 35.5155
1 48.1462 44.7642 33.0803
1 49.6001 47.2894 33.1387
1 49.5658 49.0249 35.5003
1 48.1815 46.4747 35.4639
1 33.7981 49.9212 33.1703
1 36.6236 49.8927 33.216
1 39.502 49.8418 33.1518
1 42.3973 49.8479 33.1181
1 45.2951 49.8144 33.1872
1 48.1198 49.7783 33.2458
1 43.8453 34.2219 40.1958
1 46.7155 32.5028 37.9131
1 46.7178 34.0174 40.1973
1 49.5104 32.4785 37.7831
1 49.5264 33.8887 40.1679
1 38.0622 37.5132 37.8422
1 38.1076 39.1758 40.2695
1 40.8844 37.4656 37.8862
1 41.0141 39.1432 40.2134
1 39.5945 36.7252 40.229
1 42.3213 35.0437 37.7949
1 43.9003 37.4165 37.8335
1 43.8771 39.0925 40.2299
1 42.4311 36.5912 40.1359
1 45.2119 34.824 37.8109
1 46.6962 37.3571 37.8246
1 46.7354 39.1031 40.186
1 45.2805 36.5759 40.2473
1 48.0191 34.9425 37.7957
1 49.5948 37.3443 37.7287
1 49.6093 39.0364 40.1773
1 48.1814 36.4967 40.2357
1 35.1687 42.4374 37.8167
1 35.1288 43.9898 40.1946
1 36.6768 39.9674 37.8849
1 38.0575 42.4466 37.9206
1 38.0377 44.133 40.2355
1 36.6122 41.5933 40.2117
1 39.4856 39.9821 37.9014
1 40.9508 42.4338 37.8602
1 40.889 44.1489 40.2563
1 39.4944 41.684 40.2468
1 42.3873 39.908 37.8575
1 43.901 42.3882 37.8338
1 43.8276 44.1215 40.2404
1 42.3723 41.6099 40.1709
1 45.2902 39.8525 37.8818
1 46.7752 42.3533 37.8511
1 46.7021 44.0427 40.2043
1 45.256 41.5562 40.1496
1 48.1855 39.9112 37.8404
1 49.6895 42.3711 37.9154
1 49.6392 44.0627 40.2169
1 48.2164 41.621 40.2349
1 32.4094 47.4652 37.9554
1 32.3858 49.2041 40.2454
1 33.7067 44.9578 37.8736
1 35.2017 47.4221 37.9808
1 35.1719 49.1538 40.2823
1 33.8056 46.6121 40.2775
1 36.5772 44.9259 37.8416
1 38.0283 47.4872 37.9014
1 38.0437 49.1268 40.2877
1 36.5823 46.5813 40.2155
1 39.4111 44.9208 37.8747
1 40.9529 47.3629 37.8827
1 40.9684 49.0589 40.2362
1 39.4508 46.6247 40.2068
1 42.3694 44.9915 37.9028
1 43.8711 47.422 37.8759
1 43.8151 49.1317 40.3063
1 42.3618 46.537 40.2126
1 45.2851 44.8464 37.893
1 46.7184 47.2653 37.9507
1 46.8233 49.0644 40.2492
1 45.2972 46.5897 40.2473
1 48.226 44.8655 37.8278
1 49.591 47.3269 37.8722
1 49.6654 49.0517 40.2234
1 48.1486 46.4673 40.265
1 33.7644 49.9853 37.9008
1 36.6113 49.9302 37.9368
1 39.5594 49.9009 37.9329
1 42.4366 49.9252 37.9505
1 45.2897 49.9498 37.8709
1 48.2218 49.8778 37.8427
1 46.6304 32.4762 42.6069
1 49.3856 32.4441 42.5748
1 38.1283 37.4821 42.56
1 40.9319 37.3805 42.5497
1 42.343 34.8987 42.6027
1 43.7725 37.3788 42.5403
1 45.1334 34.7843 42.5538
1 46.6452 37.4057 42.5634
1 47.9897 34.9209 42.5504
1 49.534 37.3934 42.5582
1 35.317 42.4275 42.6195
1 36.7223 39.9236 42.601
1 38.1312 42.3865 42.591
1 39.5487 39.9357 42.5811
1 41.0419 42.392 42.5676
1 42.4418 39.8661 42.5581
1 43.8923 42.439 42.5359
1 45.2917 39.9069 42.5519
1 46.7965 42.418 42.5442
1 48.187 39.9019 42.4811
1 49.6213 42.3659 42.5553
1 32.4538 47.4569 42.6061
1 33.8493 44.9522 42.5802
1 35.2568 47.4748 42.5786
1 36.6939 44.8848 42.6186
1 38.0734 47.4439 42.5663
1 39.4623 44.9172 42.6207
1 40.968 47.4092 42.586
1 42.4485 44.9627 42.5883
1 43.8954 47.4005 42.5819
1 45.3932 44.9812 42.5936
1 46.7735 47.4231 42.5682
1 48.266 44.8999 42.6151
1 49.5648 47.3815 42.4928
1 33.8166 49.9569 42.615
1 36.68 49.9368 42.5853
1 39.5845 49.916 42.5948
1 42.4391 49.9059 42.6283
1 45.3129 49.9541 42.573
1 48.1875 49.9176 42.5742
1 43.8452 34.0558 45.0315
1 46.6846 34.0292 44.9134
1 49.5165 34.0626 44.8976
1 38.0024 39.1079 44.9678
1 41.0194 39.1009 44.887
1 39.5704 36.669 44.9354
1 43.8923 39.0508 44.8721
1 42.3426 36.5173 44.9192
1 46.7667 39.1047 44.8905
1 45.2421 36.5217 44.8837
1 49.6783 39.1218 44.8804
1 48.1294 36.5841 44.8693
1 35.2188 44.0247 44.9605
1 38.1619 44.0955 45.0303
1 36.708 41.5897 44.9275
1 41.0075 44.0757 44.9131
1 39.54 41.5509 44.935
1 43.8801 44.1126 44.8763
1 42.4349 41.5896 44.8867
1 46.7584 44.061 44.9473
1 45.2959 41.573 44.8777
1 49.6583 44.0667 44.9169
1 48.1495 41.6092 44.9178
1 32.412 49.1286 44.9926
1 35.2556 49.099 44.9338
1 33.8416 46.6066 44.8756
1 38.1545 49.0591 44.9762
1 36.676 46.5894 44.9762
1 41.006 49.0839 44.8737
1 39.6046 46.6357 44.9232
1 43.9847 49.1283 44.8668
1 42.4798 46.5932 44.9364
1 46.7995 49.1749 44.9146
1 45.4236 46.6348 44.9028
1 49.6296 49.0562 44.8484
1 48.2369 46.5866 44.9232
1 43.7837 34.1675 49.6269
1 46.7301 32.5084 47.2389
1 46.8094 34.0915 49.6364
1 49.4804 32.484 47.2686
1 49.6226 34.1038 49.5159
1 38.0974 37.4822 47.2908
1 38.0773 39.156 49.6637
1 40.941 37.47 47.2885
1 41.0451 39.0843 49.5907
1 39.5951 36.788 49.5913
1 42.2799 34.942 47.3436
1 43.7749 37.4026 47.2526
1 43.8695 39.1406 49.5332
1 42.4324 36.5347 49.6094
1 45.2676 34.9249 47.3339
1 46.6516 37.4207 47.2643
1 46.7896 39.1465 49.6347
1 45.2628 36.6249 49.5972
1 48.1623 34.9704 47.2117
1 49.6087 37.4864 47.243
1 49.6381 39.2011 49.5634
1 48.1956 36.6499 49.5417
1 35.3297 42.3703 47.3471
1 35.1931 44.1114 49.6599
1 36.6678 39.8276 47.3043
1 38.1335 42.4542 47.3364
1 38.0641 44.0571 49.649
1 36.6615 41.5744 49.6947
1 39.566 39.9227 47.2818
1 41.051 42.414 47.2782
1 41.0767 44.1375 49.5775
1 39.5779 41.6542 49.6691
1 42.4261 40.001 47.1867
1 43.8249 42.3803 47.2396
1 43.945 44.0751 49.5515
1 42.4557 41.6104 49.5874
1 45.3377 39.9956 47.17
1 46.7189 42.4734 47.2546
1 46.7539 44.1457 49.5376
1 45.2948 41.6931 49.5733
1 48.0956 39.9845 47.1973
1 49.628 42.4551 47.2659
1 49.6559 44.1333 49.5771
1 48.1679 41.655 49.5846
1 32.4648 47.4935 47.2438
1 32.5096 49.0676 49.6068
1 33.7901 44.9371 47.1969
1 35.3003 47.4672 47.3569
1 35.288 49.1213 49.6759
1 33.7926 46.5613 49.6359
1 36.5941 44.9175 47.3023
1 38.1287 47.3597 47.3033
1 38.1617 49.1287 49.6123
1 36.6676 46.6098 49.6522
1 39.6363 44.9012 47.2505
1 41.0298 47.4604 47.269
1 41.0446 49.1446 49.6549
1 39.6143 46.5832 49.6478
1 42.444 44.9688 47.2142
1 43.9267 47.5178 47.2602
1 43.9444 49.1672 49.6861
1 42.6027 46.6235 49.6471
1 45.2742 44.9923 47.2078
1 46.7977 47.4478 47.3054
1 46.8158 49.151 49.6437
1 45.3778 46.6446 49.5723
1 48.1961 44.9928 47.2347
1 49.6833 47.5077 47.2798
1 49.7078 49.0943 49.6228
1 48.2767 46.6736 49.6005
1 33.8662 49.9544 47.2818
1 36.7701 49.9456 47.2023
1 39.6051 49.966 47.3041
1 42.5267 49.9206 47.2218
1 45.3956 49.9923 47.2912
1 48.3139 49.9704 47.3023
1 43.9896 34.125 54.3243
1 46.835 32.4862 52.0683
1 46.8206 34.1284 54.3487
1 49.5933 32.5671 51.9529
1 49.6208 34.1617 54.2587
1 38.2574 37.4789 51.948
1 38.1499 39.0058 54.326
1 41.1232 37.352 51.9884
1 41.045 39.0547 54.3058
1 39.6582 36.5906 54.3232
1 42.5227 34.8763 52.039
1 43.9235 37.4445 51.8808
1 43.9729 39.0612 54.3392
1 42.5667 36.5517 54.3216
1 45.3017 34.9542 51.9965
1 46.7469 37.5905 51.9035
1 46.8595 39.1476 54.2464
1 45.4027 36.6345 54.3418
1 48.1567 35.0182 51.9287
1 49.5922 37.485 51.9276
1 49.7041 39.1227 54.2534
1 48.2798 36.65 54.3191
1 35.2928 42.4243 52.0026
1 35.2854 44.0196 54.3232
1 36.7762 39.9012 52.0318
1 38.1211 42.4062 52.0466
1 38.1391 44.0876 54.3303
1 36.7747 41.5342 54.3691
1 39.6136 39.8854 51.9555
1 41.0327 42.5076 51.9814
1 41.0911 44.1895 54.3443
1 39.6329 41.5921 54.3631
1 42.4768 39.9465 51.9437
1 43.8829 42.4575 51.9964
1 43.8915 44.0858 54.323
1 42.5105 41.531 54.3681
1 45.3702 40.0592 52.0003
1 46.7737 42.4067 51.9072
1 46.7404 44.0913 54.2818
1 45.3266 41.5784 54.3325
1 48.2546 39.9711 51.8733
1 49.6795 42.4527 51.9366
1 49.7349 44.113 54.3231
1 48.2242 41.59 54.2521
1 32.4537 47.4441 51.9678
1 32.493 49.1275 54.3059
1 33.8959 44.9657 52.0566
1 35.214 47.4776 52.0043
1 35.2841 49.1833 54.2709
1 33.7902 46.5808 54.3402
1 36.7131 44.9944 52.0517
1 38.1636 47.4464 51.9312
1 38.1652 49.1827 54.2926
1 36.6419 46.6174 54.2877
1 39.5818 44.9022 52.001
1 41.073 47.4373 51.9241
1 41.0516 49.1106 54.337
1 39.5666 46.6747 54.3109
1 42.539 44.973 52.0191
1 43.9863 47.4636 51.9988
1 43.9204 49.1604 54.3152
1 42.5253 46.703 54.3472
1 45.3939 44.9539 51.8578
1 46.8821 47.3588 51.8835
1 46.8814 49.099 54.2968
1 45.4183 46.6021 54.2653
1 48.2808 44.9061 51.8568
1 49.7232 47.4795 51.9318
1 49.7359 49.0648 54.332
1 48.2325 46.6099 54.3066
1 33.8722 50.0214 51.9638
1 36.7633 49.9983 51.9504
1 39.6323 49.9705 51.9847
1 42.5256 49.9549 51.9792
1 45.4647 49.974 51.9577
1 48.2932 49.8874 51.9359
1 43.9294 34.0684 59.0395
1 46.8585 32.5424 56.5871
1 46.8017 34.0986 59.0571
1 49.6439 32.5829 56.5896
1 49.7147 34.0674 58.998
1 38.3519 37.4359 56.6963
1 38.1539 39.0921 59.0794
1 41.126 37.4667 56.6807
1 41.0544 39.1151 59.1029
1 39.618 36.6696 59.0942
1 42.5619 35.0266 56.6758
1 44.0072 37.4778 56.7358
1 43.8758 39.099 59.0452
1 42.5275 36.534 59.033
1 45.3695 34.8574 56.6758
1 46.8123 37.4058 56.7534
1 46.8131 39.1532 59.0596
1 45.4284 36.5236 59.0781
1 48.1917 35.0092 56.6713
1 49.7295 37.4993 56.6613
1 49.75 39.078 58.9903
1 48.2991 36.6017 59.0643
1 35.3892 42.4063 56.6865
1 35.2916 44.217 59.0202
1 36.8131 39.9191 56.754
1 38.1986 42.4313 56.7542
1 38.0766 44.1428 59.0168
1 36.6704 41.5626 59.1035
1 39.6088 39.9742 56.7261
1 41.0613 42.4562 56.6884
1 41.0118 44.0326 58.9934
1 39.6023 41.6269 59.1003
1 42.5264 39.9567 56.6947
1 43.8992 42.4984 56.6631
1 43.993 44.1386 59.0221
1 42.492 41.6513 58.985
1 45.379 39.863 56.706
1 46.7872 42.4721 56.6454
1 46.8044 44.1422 58.9759
1 45.4594 41.6076 58.9298
1 48.2239 39.9249 56.6563
1 49.6833 42.4593 56.6824
1 49.6802 44.1162 58.966
1 48.2895 41.6128 59.0004
1 32.4546 47.5665 56.758
1 32.4807 49.2005 59.1048
1 33.9161 45.0368 56.6148
1 35.2858 47.5022 56.6143
1 35.2665 49.1776 59.0341
1 33.8897 46.7063 59.0354
1 36.7139 45.0009 56.61
1 38.1399 47.474 56.7014
1 38.201 49.0941 59.0524
1 36.7581 46.6781 59.0187
1 39.614 45.0087 56.6368
1 41.0286 47.5197 56.7001
1 41.077 49.1617 59.0142
1 39.5995 46.5559 59.0223
1 42.4331 44.9766 56.6821
1 43.9104 47.4973 56.6969
1 44.0273 49.0958 58.9775
1 42.4786 46.5746 59.051
1 45.364 44.9389 56.6363
1 46.7751 47.4606 56.6932
1 46.8462 49.1485 58.9973
1 45.4123 46.6215 59.0099
1 48.2723 44.9576 56.6342
1 49.7064 47.4783 56.6573
1 49.8092 49.0949 59.0256
1 48.2531 46.6734 59.0475
1 33.8848 49.9794 56.6508
1 36.7226 49.9629 56.605
1 39.5955 50.0425 56.5795
1 42.5073 49.9642 56.6198
1 45.4066 49.9855 56.5547
1 48.3191 49.9007 56.6925
1 43.9871 34.0983 63.7376
1 46.8104 32.5198 61.3266
1 46.8718 34.0818 63.7157
1 49.6274 32.5116 61.4018
1 49.7788 34.128 63.6856
1 38.2422 37.5417 61.4266
1 38.138 39.1767 63.7608
1 41.0402 37.4414 61.377
1 41.0868 39.1209 63.7552
1 39.5926 36.7682 63.7383
1 42.4772 34.9276 61.4016
1 43.9149 37.4168 61.341
1 43.9722 39.1271 63.7209
1 42.5088 36.5911 63.6981
1 45.3351 34.9212 61.4124
1 46.8097 37.4376 61.4168
1 46.8621 39.0508 63.7169
1 45.3774 36.5509 63.7081
1 48.2369 34.9369 61.4116
1 49.6698 37.4431 61.3212
1 49.7377 39.1026 63.684
1 48.2466 36.5896 63.709
1 35.2345 42.4776 61.4023
1 35.2142 44.1464 63.6273
1 36.6456 39.9905 61.4688
1 38.16 42.4727 61.4324
1 38.0708 44.1525 63.6895
1 36.6535 41.6074 63.7824
1 39.6056 39.939 61.3985
1 41.0725 42.425 61.399
1 41.0064 44.1454 63.7652
1 39.5719 41.6885 63.7324
1 42.4838 39.9563 61.3604
1 43.9232 42.4209 61.3583
1 43.8723 44.1091 63.6959
1 42.4307 41.6878 63.8177
1 45.3595 39.9429 61.3758
1 46.7895 42.4514 61.3459
1 46.8343 44.119 63.6587
1 45.356 41.5966 63.6918
1 48.2456 39.974 61.3067
1 49.7119 42.4869 61.2736
1 49.7308 44.1642 63.688
1 48.2613 41.587 63.6228
1 32.5025 47.6101 61.4229
1 32.4219 49.152 63.7984
1 33.9129 45.0633 61.3794
1 35.3047 47.5675 61.4049
1 35.2834 49.253 63.7021
1 33.817 46.6703 63.7612
1 36.6999 44.9348 61.3743
1 38.1422 47.4376 61.359
1 38.122 49.122 63.6564
1 36.7105 46.6428 63.7311
1 39.6101 44.8877 61.4114
1 41.047 47.4751 61.3323
1 41.0519 49.1591 63.6666
1 39.5398 46.6205 63.7478
1 42.4663 44.9302 61.3345
1 43.9463 47.3789 61.3947
1 43.9519 49.1382 63.7658
1 42.4076 46.6395 63.6504
1 45.3385 44.9639 61.4224
1 46.7806 47.502 61.3568
1 46.8485 49.1759 63.7382
1 45.3115 46.6028 63.6917
1 48.2522 45.0108 61.3258
1 49.6496 47.3999 61.4501
1 49.7088 49.0586 63.7368
1 48.2134 46.5702 63.7547
1 33.868 50.0989 61.3925
1 36.7689 50.0753 61.3587
1 39.6108 49.9494 61.356
1 42.5412 50.006 61.3006
1 45.3325 49.9837 61.3396
1 48.2795 49.9377 61.3363
1 44.0417 34.0867 68.3722
1 49.9205 32.4778 65.9467
1 46.9596 33.9987 68.4589
1 52.653 32.5043 66.0769
1 49.7976 34.0561 68.3836
1 38.3272 37.5411 66.2282
1 38.2745 39.1161 68.4967
1 41.1258 37.377 66.0765
1 41.1884 39.1104 68.4318
1 39.7594 36.6555 68.4656
1 42.5605 34.938 66.0342
1 43.9594 37.3736 66.1206
1 44.0091 39.094 68.3634
1 42.5347 36.591 68.4588
1 45.436 34.8489 66.1251
1 46.857 37.3522 66.0541
1 46.914 39.0592 68.348
1 45.51 36.4924 68.4167
1 48.373 34.7963 66.0626
1 49.7441 37.4042 65.9938
1 49.7891 39.0687 68.4257
1 48.354 36.5587 68.3651
1 35.3666 42.5292 66.0712
1 35.2415 44.1127 68.4227
1 36.8101 39.9353 66.225
1 38.1293 42.4268 66.0296
1 38.1831 44.1166 68.3468
1 36.7567 41.6618 68.3744
1 39.7125 39.9826 66.0483
1 41.0993 42.4328 66.1227
1 41.1448 44.0873 68.4397
1 39.609 41.5648 68.3676
1 42.5304 39.9113 66.051
1 44.0447 42.4371 66.0442
1 43.9506 44.0662 68.4152
1 42.5485 41.5492 68.4699
1 45.4406 39.8658 66.0344
1 46.8845 42.4303 65.9658
1 46.8304 44.0837 68.3925
1 45.5267 41.5611 68.4241
1 48.3301 39.8448 66.0105
1 49.7711 42.4359 65.9902
1 49.696 44.0588 68.3475
1 48.28 41.5516 68.3654
1 32.3301 47.5329 66.0969
1 32.436 49.128 68.4788
1 33.8129 44.9677 66.0231
1 35.2297 47.5362 66.0586
1 35.3338 49.1234 68.4415
1 33.8705 46.653 68.3924
1 36.7079 44.9674 66.0406
1 38.1871 47.4836 66.1213
1 38.2246 49.1303 68.3801
1 36.7259 46.587 68.4327
1 39.6281 44.8725 66.0566
1 41.064 47.4147 66.0299
1 41.0513 49.1197 68.3693
1 39.6317 46.6084 68.3717
1 42.5132 44.9634 66.0805
1 43.8962 47.4648 66.0246
1 43.9231 49.1454 68.4238
1 42.5354 46.6559 68.4207
1 45.3612 45.0233 66.0593
1 46.8345 47.451 66.0617
1 46.8229 49.0427 68.4029
1 45.4029 46.648 68.3844
1 48.2678 44.9024 66.1068
1 49.7107 47.404 66.0267
1 49.7603 49.084 68.378
1 48.3008 46.5577 68.426
1 33.822 50.0001 66.1269
1 36.7445 49.9439 66.024
1 39.5741 49.9638 65.9335
1 42.4456 49.997 66.0312
1 45.3191 49.9726 66.021
1 48.3039 49.9682 66.0602
1 43.9685 34.1475 73.1022
1 47.0803 32.4516 70.8179
1 46.8738 33.975 73.1862
1 49.7883 32.4699 70.7869
1 49.8133 33.9125 73.1795
1 38.3443 37.5442 70.7615
1 38.1418 39.2547 73.165
1 41.1227 37.4732 70.8267
1 41.08 39.2014 73.1526
1 39.6132 36.7198 73.1444
1 42.546 35.0036 70.7755
1 44.0884 37.3886 70.7607
1 44.0161 39.0846 73.0738
1 42.5535 36.6791 73.1018
1 45.4534 34.8113 70.7663
1 46.9031 37.4129 70.7342
1 46.8084 39.0782 73.1561
1 45.4526 36.5463 73.0791
1 48.2925 34.9023 70.7713
1 49.7289 37.4289 70.8142
1 49.7331 39.0607 73.1549
1 48.3162 36.5286 73.1352
1 35.351 42.494 70.7402
1 35.2949 44.1852 73.105
1 36.7548 40.028 70.831
1 38.2241 42.4253 70.7718
1 38.1658 44.1569 73.1316
1 36.6802 41.7266 73.0278
1 39.747 39.9283 70.8042
1 41.0989 42.4796 70.7371
1 41.0684 44.1414 73.0696
1 39.6429 41.6593 73.1325
1 42.6584 39.9343 70.7461
1 44.0147 42.4656 70.8248
1 43.96 44.1132 73.1266
1 42.5026 41.6579 73.0672
1 45.4436 39.9035 70.736
1 46.9085 42.5041 70.7701
1 46.8581 44.137 73.1045
1 45.4394 41.5702 73.1489
1 48.3498 39.9194 70.7522
1 49.7438 42.4328 70.7269
1 49.7061 44.1087 73.0948
1 48.2329 41.5878 73.0764
1 32.4389 47.4479 70.7925
1 32.5125 49.028 73.1073
1 33.9389 45.0101 70.7782
1 35.2726 47.4416 70.7822
1 35.3315 49.1389 73.1379
1 33.9355 46.5911 73.1185
1 36.8151 44.9244 70.7546
1 38.1865 47.485 70.7603
1 38.2005 49.1789 73.0798
1 36.8069 46.6866 73.1553
1 39.6507 44.941 70.8006
1 41.1053 47.494 70.7325
1 41.0706 49.131 73.112
1 39.6233 46.6488 73.0763
1 42.5709 45.0072 70.7635
1 44.017 47.4629 70.7356
1 43.9338 49.1492 73.1058
1 42.5451 46.6314 73.1132
1 45.4394 44.9724 70.7458
1 46.8526 47.4555 70.778
1 46.8559 49.1319 73.0691
1 45.3987 46.6396 73.1041
1 48.3233 44.9423 70.7975
1 49.7131 47.4958 70.7508
1 49.7481 49.137 73.1768
1 48.3178 46.6432 73.159
1 33.7905 49.8783 70.7837
1 36.7479 49.9959 70.769
1 39.687 50.0155 70.6351
1 42.5631 49.9221 70.7847
1 45.4221 50.0112 70.7366
1 48.3144 49.9825 70.7357
1 43.9862 34.1451 77.8212
1 46.91 32.4581 75.4783
1 46.8465 34.1221 77.7948
1 49.6384 32.4267 75.6435
1 49.6581 34.0296 77.8351
1 38.2866 37.5242 75.4757
1 38.2033 39.1017 77.7759
1 41.1549 37.4551 75.5082
1 41.0712 39.168 77.8498
1 39.6736 36.634 77.8375
1 42.5925 34.9134 75.4748
1 43.9435 37.4238 75.5131
1 43.9118 39.0811 77.8172
1 42.4854 36.5983 77.8057
1 45.373 34.9132 75.4859
1 46.8359 37.384 75.4515
1 46.7877 39.0875 77.7727
1 45.3794 36.6059 77.8452
1 48.2964 34.9622 75.4576
1 49.7127 37.4448 75.5147
1 49.7109 39.0455 77.8572
1 48.2991 36.675 77.8418
1 35.2999 42.4656 75.4423
1 35.2359 44.0837 77.7526
1 36.7167 40.0206 75.3954
1 38.1521 42.4898 75.4297
1 38.2398 44.1026 77.8219