5538
Atoms. Timestep: 70000
1 43.6878 34.0986 7.34941
1 45.1078 31.8238 7.06442
1 46.4987 34.177 7.18372
1 47.8488 31.7266 7.12909
1 49.3369 34.1294 7.09685
1 36.5642 36.8338 7.18387
1 37.9924 39.1719 7.14726
1 40.706 37.5271 4.8663
1 40.8099 39.0932 7.20428
1 39.3109 36.6593 7.25232
1 42.201 35.04 5.05415
1 43.5483 37.5295 5.04715
1 43.6725 39.102 7.30231
1 42.1604 36.6511 7.25464
1 45.0063 35.0191 4.96689
1 46.4542 37.3812 5.00703
1 46.6393 39.0698 7.34664
1 45.0231 36.5981 7.263
1 47.8044 34.9925 4.81873
1 49.3137 37.3747 4.92656
1 49.4546 39.0545 7.28492
1 47.9365 36.5917 7.24795
1 33.682 41.741 7.2224
1 35.1536 44.0796 7.30986
1 35.0851 39.2317 7.29192
1 38.0865 42.4908 4.95316
1 38.0047 44.1051 7.3536
1 36.4836 41.635 7.17423
1 39.4517 40.0445 4.96384
1 40.9027 42.4762 4.92041
1 40.776 44.0586 7.31158
1 39.3544 41.6502 7.25374
1 42.239 39.97 4.86092
1 43.7411 42.3725 4.91739
1 43.7795 44.0914 7.34851
1 42.2742 41.5797 7.23038
1 45.1581 39.9072 4.95901
1 46.601 42.3567 4.9012
1 46.6481 44.108 7.20499
1 45.2115 41.5318 7.28215
1 48.0131 39.8149 5.0037
1 49.4901 42.3797 4.88796
1 49.5338 44.056 7.22887
1 48.0874 41.5411 7.27846
1 30.9186 46.4313 7.59307
1 32.124 49.1131 7.43258
1 32.4067 44.1403 7.12533
1 34.9612 47.5226 5.00084
1 35.0508 49.1339 7.39185
1 33.5881 46.6703 7.2662
1 36.6337 44.9673 5.01559
1 37.8875 47.467 4.94747
1 37.929 49.177 7.33728
1 36.5161 46.6777 7.35126
1 39.4192 45.0041 4.94977
1 40.9052 47.4468 4.91982
1 40.8777 49.088 7.25597
1 39.3312 46.6142 7.32107
1 42.3932 44.8615 5.01729
1 43.6985 47.3936 4.86661
1 43.7177 49.0034 7.24122
1 42.2165 46.5781 7.30432
1 45.222 44.9386 4.95385
1 46.6245 47.434 5.0015
1 46.6281 49.0085 7.27875
1 45.1388 46.4885 7.24239
1 48.0852 44.8983 4.90249
1 49.453 47.4012 4.93771
1 49.505 49.1316 7.33163
1 48.0295 46.5557 7.26553
1 33.5752 49.9698 5.15688
1 36.4079 49.9631 5.07657
1 39.2931 49.9201 4.87102
1 42.2315 49.9733 4.96311
1 45.1357 49.9027 5.0192
1 48.0321 50.0143 4.94539
1 43.6773 33.9772 11.8934
1 46.4053 32.4454 9.44205
1 46.5487 33.7915 11.9803
1 49.2776 32.3504 9.42246
1 49.3209 33.8935 11.8664
1 37.9362 37.4743 9.57032
1 37.8867 39.0584 11.9006
1 40.7173 37.346 9.66866
1 40.7174 38.9643 12.0055
1 39.2546 36.5782 12.0401
1 42.148 34.8774 9.53343
1 43.5941 37.335 9.69734
1 43.5732 38.9285 11.9793
1 42.1226 36.3226 11.9265
1 45.0296 34.8351 9.66537
1 46.5119 37.3149 9.61002
1 46.5135 38.9441 11.9945
1 45.032 36.4228 12.0122
1 47.8623 34.8169 9.58232
1 49.3465 37.3139 9.53443
1 49.3683 38.9319 11.9109
1 47.9438 36.3838 11.8947
1 34.9535 42.379 9.60533
1 35.0089 44.0859 11.9516
1 36.5417 39.9353 9.51654
1 37.8147 42.3696 9.67861
1 37.9298 43.9921 11.9765
1 36.3635 41.5197 11.8946
1 39.4056 39.917 9.61792
1 40.7608 42.4222 9.60497
1 40.7988 44 12.0358
1 39.3398 41.5213 12.0153
1 42.1603 39.8407 9.62388
1 43.7414 42.2901 9.64285
1 43.7387 44.0346 11.8917
1 42.235 41.5237 11.9431
1 45.1096 39.8052 9.66907
1 46.617 42.3653 9.62799
1 46.626 43.9585 11.9513
1 45.0939 41.4119 12.0216
1 48.0134 39.8517 9.62633
1 49.5026 42.3524 9.61146
1 49.5694 44.071 12.0158
1 48.0468 41.4936 12.011
1 32.2292 47.5014 9.74784
1 32.2326 49.015 12.1394
1 33.5657 44.9043 9.59731
1 34.9805 47.441 9.69493
1 35.0067 49.0556 12.1243
1 33.5447 46.4822 12.0392
1 36.4406 44.9472 9.65251
1 37.8751 47.4369 9.70912
1 37.9813 49.0444 12.0848
1 36.451 46.5736 12.0158
1 39.3443 44.8784 9.69487
1 40.7823 47.3792 9.67623
1 40.756 49.0613 12.0607
1 39.3415 46.5317 12.0637
1 42.2744 44.898 9.68264
1 43.6691 47.3611 9.6665
1 43.6727 48.997 11.9948
1 42.2406 46.5823 11.9638
1 45.1337 44.8992 9.61575
1 46.584 47.3083 9.57714
1 46.5423 49.0526 11.9595
1 45.1235 46.579 11.95
1 48.0386 44.8554 9.59073
1 49.4423 47.4104 9.62902
1 49.5284 49.0038 11.9899
1 47.976 46.5556 11.9224
1 33.6395 49.9767 9.83528
1 36.5196 49.8629 9.72687
1 39.4155 49.9353 9.67108
1 42.2596 49.893 9.6614
1 45.0944 49.8202 9.64662
1 47.8945 49.8946 9.6144
1 43.6796 33.9366 16.6152
1 46.3946 32.262 14.3375
1 46.5524 33.857 16.6129
1 49.2003 32.3073 14.1108
1 49.4926 33.8163 16.5389
1 37.8895 37.443 14.2892
1 37.9271 38.9413 16.7089
1 40.8353 37.3182 14.2314
1 40.8476 39.0008 16.6516
1 39.3967 36.5809 16.5944
1 42.2348 34.812 14.2947
1 43.6391 37.3139 14.3212
1 43.6767 38.9253 16.7294
1 42.1951 36.3625 16.6741
1 45.0496 34.7333 14.29
1 46.5698 37.1856 14.273
1 46.591 38.8725 16.6712
1 45.1191 36.4188 16.6439
1 47.9601 34.7097 14.2919
1 49.3881 37.3341 14.1806
1 49.4543 38.8732 16.6144
1 48.0485 36.3604 16.6021
1 35.0365 42.3295 14.219
1 34.9837 43.9035 16.6622
1 36.4215 39.9662 14.1739
1 37.9386 42.3846 14.3415
1 37.8659 44.0213 16.7398
1 36.4556 41.4421 16.6083
1 39.3009 39.8308 14.3234
1 40.802 42.3664 14.2789
1 40.8222 43.9319 16.5886
1 39.3705 41.4563 16.6935
1 42.2049 39.8876 14.3736
1 43.7366 42.3277 14.2713
1 43.7852 44.0684 16.6251
1 42.3647 41.4589 16.7017
1 45.1458 39.7968 14.406
1 46.5899 42.3129 14.3085
1 46.6382 44.1172 16.6651
1 45.1849 41.4913 16.6898
1 48.0078 39.8303 14.3102
1 49.4928 42.3966 14.2892
1 49.5486 44.0309 16.6872
1 48.03 41.4791 16.6478
1 32.2027 47.3141 14.4512
1 32.242 48.9405 16.8404
1 33.5582 44.8262 14.3106
1 34.9782 47.3537 14.4533
1 34.9984 48.9967 16.831
1 33.5352 46.4529 16.8196
1 36.4607 44.8562 14.3269
1 37.9038 47.2896 14.4298
1 37.9281 48.9581 16.7897
1 36.4246 46.4454 16.7714
1 39.2971 44.8144 14.4035
1 40.8176 47.2658 14.4417
1 40.858 49.0103 16.7614
1 39.3996 46.4825 16.7215
1 42.3205 44.8122 14.265
1 43.7341 47.3509 14.3665
1 43.6882 48.9457 16.729
1 42.2659 46.4018 16.7372
1 45.1332 44.8944 14.2186
1 46.5646 47.3722 14.2994
1 46.5633 48.9725 16.6432
1 45.1648 46.537 16.6625
1 48.0481 44.8842 14.2931
1 49.5142 47.3477 14.3781
1 49.4796 49.0156 16.6471
1 48.0777 46.5288 16.6447
1 33.5411 49.8308 14.5249
1 36.4508 49.878 14.4691
1 39.3353 49.7595 14.4641
1 42.225 49.7874 14.4699
1 45.1781 49.8406 14.35
1 48.0163 49.8414 14.3427
1 43.7912 33.9007 21.4461
1 46.7873 32.1929 18.965
1 46.6048 33.8265 21.3377
1 49.4923 32.3171 18.9378
1 49.4568 33.8559 21.3361
1 38.0681 37.2702 18.9744
1 38.0275 38.9764 21.3052
1 40.8916 37.2499 19.0169
1 40.8561 38.8895 21.3687
1 39.3318 36.5485 21.4559
1 42.4812 34.8409 18.9971
1 43.7411 37.3135 19.0324
1 43.7904 38.8923 21.3944
1 42.388 36.3529 21.4151
1 45.1924 34.585 18.993
1 46.6158 37.2737 18.9518
1 46.6988 38.9036 21.2721
1 45.2153 36.3363 21.2852
1 48.0537 34.6833 18.9673
1 49.5473 37.2039 18.954
1 49.5034 38.956 21.3012
1 48.0351 36.3763 21.2342
1 35.1369 42.2964 19.0976
1 35.045 43.949 21.3926
1 36.5887 39.8277 18.9819
1 37.9636 42.3107 18.9587
1 37.934 43.9039 21.4151
1 36.5132 41.4154 21.449
1 39.4624 39.7988 19.0109
1 40.9068 42.3507 18.9897
1 40.857 43.9877 21.4422
1 39.358 41.5195 21.3687
1 42.2583 39.789 19.0128
1 43.7558 42.3343 19.051
1 43.7705 43.9051 21.4357
1 42.2371 41.4433 21.4132
1 45.1784 39.7636 19.0196
1 46.6265 42.3107 18.961
1 46.6499 43.9616 21.4266
1 45.1727 41.4345 21.4402
1 48.0732 39.785 18.9859
1 49.4894 42.2778 18.9802
1 49.5905 43.9538 21.4248
1 48.1096 41.4988 21.3715
1 32.3212 47.3083 19.1547
1 32.2504 48.8554 21.4787
1 33.7014 44.7765 19.0312
1 35.1495 47.2837 19.1773
1 35.1036 48.9016 21.5063
1 33.6504 46.4319 21.4398
1 36.4677 44.7814 19.077
1 37.934 47.2664 19.056
1 37.9317 48.9172 21.3964
1 36.517 46.3422 21.416
1 39.4525 44.7761 19.0422
1 40.8065 47.3315 19.0474
1 40.8425 48.9627 21.4478
1 39.4271 46.5019 21.3713
1 42.3433 44.7957 19.0599
1 43.7431 47.2754 19.0149
1 43.7643 48.9183 21.4096
1 42.3756 46.4155 21.3836
1 45.1503 44.754 19.0536
1 46.6441 47.2491 18.96
1 46.6948 48.8865 21.3614
1 45.2282 46.5144 21.2947
1 48.0839 44.7945 19.0634
1 49.4809 47.2674 19.1065
1 49.4622 48.9733 21.3825
1 48.0928 46.4337 21.3717
1 33.5621 49.8254 19.1775
1 36.5303 49.7575 19.127
1 39.4083 49.8101 19.1273
1 42.2991 49.8093 19.0751
1 45.1829 49.7418 19.056
1 48.0645 49.8385 19.0244
1 43.8108 34.0494 26.1319
1 46.5722 32.3087 23.7253
1 46.6146 33.9302 26.084
1 49.4521 32.3325 23.8243
1 49.5437 33.8634 26.1108
1 38.0705 37.4161 23.7645
1 37.8761 38.9657 26.0712
1 40.9641 37.3735 23.7103
1 40.7922 38.8518 26.137
1 39.4059 36.4603 26.0615
1 42.362 34.8949 23.8321
1 43.834 37.2742 23.7691
1 43.6794 38.981 26.0627
1 42.2787 36.4092 26.0963
1 45.1738 34.8248 23.6979
1 46.6555 37.2787 23.6878
1 46.6448 38.9346 26.0027
1 45.2344 36.458 26.1134
1 48.0595 34.7341 23.7114
1 49.5537 37.2615 23.6486
1 49.5264 38.8532 26.0019
1 48.1317 36.3599 26.0206
1 35.0968 42.3437 23.8337
1 35.0375 43.9791 26.1645
1 36.5767 39.8772 23.7692
1 37.9252 42.3254 23.7485
1 37.9777 44.0067 26.122
1 36.4696 41.4927 26.1455
1 39.5034 39.8129 23.8236
1 40.8947 42.3122 23.7956
1 40.7945 44.0228 26.1615
1 39.3682 41.4719 26.1822
1 42.3192 39.8404 23.808
1 43.7236 42.3564 23.7135
1 43.6696 43.9046 26.0988
1 42.2265 41.4705 26.0901
1 45.2237 39.796 23.7094
1 46.6551 42.2432 23.7381
1 46.6275 43.9585 26.1222
1 45.163 41.4603 26.0802
1 48.1676 39.7146 23.7091
1 49.502 42.3678 23.7212
1 49.5549 43.9204 26.1067
1 48.1063 41.5032 26.0916
1 32.2813 47.4093 23.8348
1 32.2702 49.0522 26.1368
1 33.683 44.842 23.7242
1 35.0742 47.2667 23.7642
1 35.0751 49.0661 26.1751
1 33.6655 46.4942 26.1563
1 36.4185 44.7834 23.8641
1 37.9123 47.349 23.7319
1 37.9815 49.0248 26.1526
1 36.541 46.5356 26.1449
1 39.361 44.7706 23.7356
1 40.8308 47.291 23.7286
1 40.8199 49.0077 26.134
1 39.4233 46.5931 26.098
1 42.2788 44.8907 23.748
1 43.7186 47.3129 23.6715
1 43.7771 48.8842 26.085
1 42.292 46.4459 26.152
1 45.2131 44.7963 23.6988
1 46.6221 47.2936 23.7826
1 46.6165 48.8918 26.0753
1 45.1629 46.397 26.0412
1 48.1015 44.8383 23.7512
1 49.4958 47.327 23.7912
1 49.4931 48.92 26.1288
1 48.0903 46.4255 26.1638
1 33.6056 49.8231 23.7858
1 36.5195 49.7693 23.7885
1 39.3816 49.8145 23.75
1 42.3228 49.8165 23.7546
1 45.1086 49.799 23.7331
1 48.0118 49.7924 23.7746
1 49.7248 32.3675 28.4788
1 52.5015 32.3001 28.1838
1 38.1534 37.4129 28.459
1 40.9221 37.2599 28.5179
1 42.361 34.7946 28.5037
1 43.7924 37.2967 28.4844
1 45.1943 34.7752 28.4594
1 46.6382 37.2771 28.4271
1 48.1468 34.7576 28.4173
1 49.5183 37.2272 28.3704
1 35.1211 42.2657 28.4915
1 36.4918 39.7664 28.4619
1 37.9927 42.3221 28.413
1 39.3779 39.8301 28.451
1 40.9071 42.2721 28.4796
1 42.2903 39.8061 28.4319
1 43.7845 42.2923 28.4457
1 45.1724 39.8108 28.3509
1 46.6861 42.2586 28.4448
1 48.0859 39.7302 28.4622
1 49.5371 42.1606 28.4696
1 32.2182 47.3943 28.4926
1 33.7137 44.8603 28.4493
1 35.0535 47.3435 28.5133
1 36.5273 44.784 28.5648
1 37.9066 47.3041 28.6167
1 39.4185 44.804 28.4992
1 40.7813 47.2931 28.4949
1 42.336 44.7882 28.4057
1 43.8239 47.2193 28.4625
1 45.3003 44.7779 28.4696
1 46.6646 47.2902 28.4383
1 48.1017 44.8657 28.4883
1 49.5274 47.2939 28.4436
1 33.7042 49.8461 28.5086
1 36.5235 49.8477 28.5363
1 39.3089 49.8351 28.5129
1 42.1954 49.7524 28.5964
1 45.1242 49.7513 28.522
1 48.0083 49.8586 28.432
1 43.8174 34.0102 30.9092
1 46.7271 33.8685 30.7319
1 49.5446 33.8936 30.7857
1 38.0027 39.0035 30.8271
1 40.8967 38.9012 30.7897
1 39.3983 36.5173 30.8396
1 43.7863 38.9421 30.7652
1 42.3528 36.384 30.8715
1 46.6923 39.0003 30.7972
1 45.2297 36.4493 30.8305
1 49.6936 38.8864 30.7815
1 48.1181 36.3891 30.7984
1 35.057 43.9804 30.8509
1 37.9184 43.9982 30.8499
1 36.5109 41.5013 30.8451
1 40.9008 43.9559 30.9456
1 39.3973 41.4705 30.8386
1 43.7816 43.9812 30.7546
1 42.365 41.4913 30.7598
1 46.7093 43.8784 30.7954
1 45.1766 41.4891 30.7861
1 49.5502 43.9529 30.7263
1 48.1061 41.4055 30.8207
1 32.3319 48.9353 30.7692
1 35.0998 48.9825 30.9182
1 33.6022 46.4518 30.8405
1 38.0145 48.9773 30.969
1 36.5049 46.4968 30.9105
1 40.8239 48.9728 30.836
1 39.4853 46.4576 30.9049
1 43.7499 48.9155 30.8153
1 42.3175 46.4658 30.759
1 46.7067 48.9582 30.8126
1 45.3319 46.4647 30.8065
1 49.5357 48.9912 30.8045
1 48.0861 46.4729 30.7564
1 43.9452 33.875 35.5279
1 46.7488 32.3407 33.1603
1 46.8017 33.857 35.4797
1 49.5649 32.2193 33.0042
1 49.5987 33.8131 35.3762
1 38.1041 37.4019 33.1505
1 38.1136 38.9368 35.4456
1 40.9663 37.1993 33.2164
1 41.0358 38.9666 35.4884
1 39.5444 36.416 35.5028
1 42.3387 34.6765 33.3416
1 43.7982 37.2521 33.1926
1 43.8299 38.8987 35.5154
1 42.4546 36.3429 35.5439
1 45.1475 34.7556 33.2462
1 46.664 37.2672 33.1845
1 46.7483 38.8929 35.4158
1 45.3219 36.3706 35.4303
1 48.0392 34.7503 33.0986
1 49.6337 37.226 33.1385
1 49.6158 38.8932 35.496
1 48.2452 36.3656 35.473
1 35.065 42.2331 33.1685
1 35.1618 43.971 35.4931
1 36.5719 39.7216 33.189
1 38.0425 42.203 33.1758
1 38.102 43.9538 35.4987
1 36.6116 41.4546 35.5037
1 39.5196 39.8151 33.1436
1 40.9315 42.249 33.2072
1 40.9201 43.97 35.5291
1 39.5374 41.45 35.5899
1 42.3183 39.6989 33.0956
1 43.7698 42.2805 33.1787
1 43.8577 43.8848 35.5188
1 42.4189 41.3822 35.4079
1 45.1817 39.7141 33.1449
1 46.6465 42.2954 33.1572
1 46.7421 44.0153 35.4552
1 45.355 41.4374 35.5686
1 48.1796 39.8317 33.1402
1 49.6168 42.3262 33.169
1 49.6416 43.9928 35.5075
1 48.2156 41.4823 35.4745
1 32.2992 47.2881 33.174
1 32.2739 48.9807 35.5023
1 33.746 44.8153 33.1829
1 35.1144 47.3257 33.1729
1 35.0861 49.0078 35.4742
1 33.6225 46.456 35.5498
1 36.623 44.7175 33.2226
1 37.9714 47.2904 33.2211
1 37.9878 48.9721 35.5317
1 36.5379 46.5304 35.5234
1 39.5127 44.7145 33.2052
1 40.9116 47.3233 33.154
1 40.9053 49.027 35.4942
1 39.4775 46.4531 35.4708
1 42.3318 44.7347 33.2216
1 43.7893 47.2617 33.1472
1 43.7851 48.9519 35.4961
1 42.4111 46.4548 35.4671
1 45.1455 44.7888 33.127
1 46.694 47.398 33.1986
1 46.7728 49.0055 35.569
1 45.3345 46.4732 35.5035
1 48.1529 44.8473 33.1255
1 49.5868 47.3761 33.1435
1 49.6048 49.0146 35.4457
1 48.1371 46.5355 35.4761
1 33.6649 49.7761 33.159
1 36.5578 49.8102 33.2161
1 39.4426 49.7893 33.211
1 42.3164 49.8155 33.1694
1 45.1753 49.752 33.1338
1 48.1304 49.899 33.1298
1 43.9375 33.9387 40.2257
1 47.0182 32.3644 37.9049
1 46.7999 33.9592 40.2246
1 49.8127 32.2269 37.6457
1 49.6882 33.7585 40.115
1 38.1601 37.1843 37.7779
1 38.0423 38.8895 40.1889
1 41.0634 37.2246 37.772
1 41.0487 38.9478 40.2061
1 39.5861 36.529 40.1713
1 42.5605 34.7939 37.8403
1 43.8835 37.2729 37.8891
1 43.8887 38.8876 40.2549
1 42.415 36.341 40.1738
1 45.3976 34.7494 37.8525
1 46.7719 37.3114 37.8086
1 46.7543 38.9987 40.2324
1 45.3516 36.387 40.1974
1 48.3227 34.8288 37.7686
1 49.7485 37.2515 37.8293
1 49.6338 38.928 40.1432
1 48.2403 36.3667 40.2491
1 35.2543 42.2401 37.8813
1 35.1261 43.978 40.2036
1 36.6816 39.7247 37.734
1 38.0835 42.2744 37.9169
1 38.0402 43.8921 40.2062
1 36.6477 41.4072 40.2226
1 39.5519 39.6605 37.8046
1 41.0273 42.2509 37.8314
1 40.936 43.9142 40.3064
1 39.5846 41.3324 40.1687
1 42.4519 39.7452 37.8634
1 43.8372 42.3163 37.9135
1 43.8777 43.9632 40.276
1 42.4989 41.459 40.2625
1 45.3153 39.8499 37.8049
1 46.8154 42.2838 37.8354
1 46.7405 43.9142 40.2258
1 45.3327 41.3882 40.2256
1 48.2205 39.8135 37.786
1 49.6209 42.2639 37.843
1 49.7107 43.9663 40.1249
1 48.2507 41.4197 40.1594
1 32.2735 47.318 37.9606
1 32.3051 49.0244 40.2415
1 33.93 44.8657 37.7887
1 35.1506 47.3001 37.9052
1 35.1664 48.9826 40.2516
1 33.6968 46.4611 40.2471
1 36.6683 44.7351 37.8411
1 38.0722 47.1952 37.958
1 38.0294 48.9396 40.2494
1 36.5231 46.4642 40.2001
1 39.5547 44.7729 37.8846
1 40.8893 47.3208 37.8352
1 40.9666 48.9974 40.2226
1 39.5214 46.3648 40.2813
1 42.473 44.7808 37.8657
1 43.8197 47.3418 37.8798
1 43.8332 48.9451 40.2608
1 42.4203 46.4413 40.213
1 45.3375 44.7474 37.7807
1 46.6392 47.3345 37.8272
1 46.7636 49.0063 40.1504
1 45.3211 46.3514 40.2303
1 48.2106 44.8062 37.8422
1 49.5745 47.2427 37.8384
1 49.612 49.0351 40.2268
1 48.1247 46.4055 40.212
1 33.7366 49.7408 37.9146
1 36.6815 49.7206 37.8692
1 39.4653 49.844 37.8832
1 42.3942 49.8277 37.9531
1 45.2724 49.8276 37.9009
1 48.2443 49.9079 37.851
1 47.009 32.2757 42.3451
1 49.8493 32.2154 42.4906
1 38.1537 37.2545 42.4559
1 40.9669 37.2727 42.5343
1 42.5546 34.7673 42.6462
1 43.9146 37.2425 42.5605
1 45.3944 34.7128 42.5767
1 46.8277 37.2125 42.5336
1 48.3066 34.679 42.5712
1 49.7855 37.1675 42.5393
1 35.2821 42.3391 42.5065
1 36.7408 39.775 42.6459
1 38.1693 42.2428 42.6242
1 39.5292 39.7901 42.5208
1 41.0406 42.3259 42.6334
1 42.4717 39.8098 42.5649
1 43.9811 42.2536 42.6389
1 45.3856 39.7956 42.6531
1 46.8151 42.2229 42.539
1 48.3002 39.6987 42.4587
1 49.6745 42.2568 42.502
1 32.3357 47.3973 42.5135
1 33.8031 44.8276 42.5667
1 35.1257 47.3709 42.585
1 36.6758 44.8104 42.5928
1 38.0242 47.2829 42.5574
1 39.5442 44.8192 42.6312
1 41.0059 47.3096 42.6055
1 42.4985 44.7724 42.5778
1 43.913 47.2745 42.5947
1 45.4181 44.75 42.5709
1 46.8034 47.3109 42.5893
1 48.2245 44.7247 42.6427
1 49.6761 47.2185 42.4261
1 33.7847 49.8358 42.5751
1 36.6727 49.8349 42.5111
1 39.5284 49.83 42.6281
1 42.3782 49.9156 42.6085
1 45.2724 49.849 42.5959
1 48.137 49.7741 42.5688
1 43.9773 33.9964 44.9446
1 46.9053 33.8703 44.8766
1 49.7374 33.8843 44.8702
1 38.2162 38.7666 44.9191
1 41.0924 38.8743 44.8637
1 39.6208 36.372 44.8357
1 43.955 38.9698 44.9318
1 42.5176 36.404 44.9287
1 46.8895 38.9611 44.8538
1 45.4453 36.4453 44.9076
1 49.755 38.8984 44.8346
1 48.3012 36.4745 44.8836
1 35.2863 43.9385 44.9109
1 38.0837 43.9564 44.981
1 36.7312 41.4594 44.8404
1 40.9967 43.9862 44.9659
1 39.5746 41.3802 44.9615
1 43.9668 43.9608 44.8867
1 42.5092 41.4449 44.912
1 46.7752 43.9435 44.9361
1 45.3818 41.496 44.9456
1 49.7546 43.9705 44.9149
1 48.2607 41.4364 44.8625
1 32.2963 48.977 44.9028
1 35.1622 48.9983 44.9091
1 33.6519 46.5084 44.8665
1 37.9961 48.9521 44.9247
1 36.5801 46.5194 44.9419
1 40.9488 49.0256 44.9757
1 39.4969 46.4782 45.0057
1 43.8217 48.9305 44.992
1 42.4737 46.459 44.9329
1 46.7264 48.8971 44.945
1 45.3497 46.4064 44.9566
1 49.658 48.954 44.8593
1 48.2301 46.492 44.9002
1 44.1505 34.1119 49.6521
1 47.0379 32.3769 47.287
1 46.9037 33.9711 49.6632
1 49.8456 32.2535 47.3153
1 49.7463 33.8975 49.5511
1 38.3384 37.2317 47.2589
1 38.1229 39.0173 49.6069
1 41.0902 37.2226 47.1818
1 41.0246 38.9094 49.5643
1 39.5746 36.5939 49.6408
1 42.6951 34.7748 47.3875
1 44.0066 37.2639 47.2376
1 43.9043 39.022 49.5379
1 42.5039 36.5215 49.6143
1 45.4699 34.8145 47.243
1 46.9181 37.386 47.2528
1 46.7858 39.0603 49.5677
1 45.3818 36.575 49.6618
1 48.2989 34.8154 47.2226
1 49.7662 37.2901 47.1257
1 49.6905 38.9784 49.5722
1 48.3042 36.5422 49.5005
1 35.2859 42.2652 47.2491
1 35.1233 43.9357 49.5899
1 36.7724 39.8159 47.1957
1 38.1475 42.2393 47.3039
1 38.1305 44.0109 49.5577
1 36.6294 41.4165 49.6803
1 39.6435 39.7998 47.2669
1 40.995 42.2601 47.202
1 41.0282 43.9894 49.5842
1 39.5885 41.4342 49.632
1 42.5246 39.8185 47.2577
1 43.8708 42.3697 47.3316
1 43.9094 44.0766 49.5927
1 42.4873 41.4931 49.5512
1 45.3848 39.874 47.214
1 46.847 42.276 47.2846
1 46.7825 44.0308 49.5998
1 45.3894 41.542 49.6089
1 48.3597 39.7832 47.238
1 49.7884 42.2522 47.2384
1 49.6877 44.0775 49.552
1 48.2925 41.5203 49.6327
1 32.3 47.257 47.2321
1 32.3312 49.0459 49.6523
1 33.8816 44.7958 47.2437
1 35.0768 47.3654 47.2401
1 35.2088 48.9932 49.5848
1 33.6027 46.4956 49.6285
1 36.694 44.8522 47.2755
1 38.0283 47.3553 47.2552
1 38.0503 48.9402 49.6396
1 36.516 46.5131 49.5677
1 39.5649 44.7817 47.2547
1 40.889 47.3035 47.2435
1 40.9977 49.0135 49.5937
1 39.578 46.4592 49.6343
1 42.5188 44.7937 47.1869
1 43.9306 47.3282 47.3569
1 43.94 49.0738 49.588
1 42.3798 46.5247 49.5742
1 45.3655 44.8634 47.2427
1 46.8481 47.3527 47.2813
1 46.7337 49.0757 49.5843
1 45.306 46.5705 49.6422
1 48.2101 44.768 47.2218
1 49.7883 47.2934 47.3163
1 49.6789 49.005 49.5489
1 48.2352 46.5781 49.5733
1 33.6606 49.7962 47.2834
1 36.6068 49.8549 47.2774
1 39.5347 49.863 47.2811
1 42.3877 49.8703 47.2682
1 45.2954 49.8736 47.2936
1 48.1791 49.8895 47.2213
1 44.0802 34.0282 54.3196
1 46.7821 32.5014 51.9794
1 46.9627 34.0786 54.3044
1 49.6287 32.3774 51.9906
1 49.7511 33.9285 54.3565
1 38.2399 37.3195 52.0122
1 38.1721 39.0704 54.3329
1 41.0958 37.3242 51.9551
1 41.0509 39.0334 54.34
1 39.6767 36.5813 54.3837
1 42.6044 34.9486 51.9554
1 43.9824 37.4399 51.9872
1 43.9397 39.108 54.3508
1 42.5923 36.4875 54.3568
1 45.3372 35.0065 51.9986
1 46.8513 37.4429 51.9535
1 46.8438 39.1129 54.3632
1 45.4597 36.5908 54.3868
1 48.2993 34.8862 51.9359
1 49.7739 37.3536 51.8727
1 49.7826 39.0966 54.2241
1 48.3283 36.5522 54.2205
1 35.2809 42.3534 52.0038
1 35.3324 44.0895 54.3055
1 36.7536 39.8483 52.0075
1 38.11 42.3216 51.9644
1 38.203 44.0261 54.3078
1 36.7357 41.6021 54.2672
1 39.5967 39.7826 51.9761
1 40.9989 42.3761 51.9308
1 41.1148 44.0604 54.2127
1 39.6832 41.5951 54.2491
1 42.5153 39.9079 51.8838
1 43.8827 42.4157 51.9426
1 43.9836 44.1048 54.2872
1 42.5057 41.6067 54.3406
1 45.4021 39.948 51.9921
1 46.8966 42.3959 51.8543
1 46.8416 44.0818 54.3331
1 45.4157 41.5432 54.341
1 48.2759 39.8501 51.9202
1 49.7439 42.4405 51.9737
1 49.7429 44.1465 54.3323
1 48.304 41.6479 54.2706
1 32.2567 47.4099 52.0035
1 32.4154 49.0324 54.3862
1 33.8481 44.8443 51.994
1 35.2153 47.3196 51.9555
1 35.264 48.9785 54.2814
1 33.7885 46.5087 54.2861
1 36.6566 44.8141 51.9388
1 38.1495 47.2953 51.9565
1 38.1943 49.0102 54.2776
1 36.6989 46.4763 54.2791
1 39.5823 44.8347 51.9239
1 41.065 47.3717 51.9723
1 41.062 49.1158 54.2692
1 39.5874 46.5822 54.2519
1 42.4585 44.9121 51.8659
1 43.9352 47.3528 51.9181
1 43.8993 49.0531 54.3674
1 42.5172 46.5442 54.2888
1 45.3976 44.7987 51.9961
1 46.829 47.36 51.9738
1 46.7892 49.0907 54.2663
1 45.4047 46.5761 54.2854
1 48.269 44.9528 51.9296
1 49.736 47.3896 51.9113
1 49.6556 49.1546 54.3711
1 48.2956 46.5819 54.3364
1 33.8379 49.8696 52.0318
1 36.6239 49.8167 51.9808
1 39.5661 49.7949 51.9404
1 42.5646 49.8242 52.0019
1 45.3611 49.8331 51.9919
1 48.2246 49.8642 52.0059
1 44.0326 34.1267 59.0025
1 47.0321 32.478 56.7421
1 46.9256 34.0477 58.9169
1 49.7972 32.4068 56.6207
1 49.771 33.8742 59.0259
1 38.309 37.4043 56.6204
1 38.2064 39.0787 59.0069
1 41.1327 37.3528 56.7179
1 41.1032 38.9489 58.9939
1 39.6273 36.6059 59.0873
1 42.6326 34.8928 56.6384
1 44.0545 37.4078 56.666
1 44.0321 39.0239 58.9869
1 42.5921 36.4964 59.0593
1 45.4459 34.8222 56.6465
1 46.9398 37.3288 56.6481
1 46.9172 39.0634 59.0041
1 45.5385 36.5773 59.0257
1 48.4218 34.9744 56.6479
1 49.7942 37.3559 56.5692
1 49.7601 38.9574 58.942
1 48.3586 36.4867 59.0108
1 35.3575 42.3577 56.5989
1 35.3384 43.9873 58.9559
1 36.7582 39.8426 56.6064
1 38.2206 42.2827 56.6525
1 38.2468 43.9509 59.0191
1 36.7409 41.5078 58.9747
1 39.6618 39.8262 56.6724
1 41.0439 42.4136 56.7034
1 41.0871 44.0674 59.0319
1 39.6448 41.5383 58.9848
1 42.5245 39.8843 56.6537
1 43.9724 42.4005 56.727
1 43.9233 44.0491 59.0639
1 42.5402 41.5101 58.9457
1 45.4808 39.9314 56.7493
1 46.8374 42.4652 56.618
1 46.8762 44.1405 58.9956
1 45.4439 41.5487 59.0763
1 48.3936 39.9026 56.641
1 49.7842 42.4365 56.691
1 49.723 44.1005 59.0669
1 48.2376 41.5496 58.9859
1 32.4494 47.4209 56.6827
1 32.5629 49.0526 58.9983
1 33.8998 44.8293 56.5948
1 35.1889 47.3575 56.6477
1 35.3205 49.0554 59.0531
1 33.8724 46.4106 58.927
1 36.7024 44.8697 56.688
1 38.1148 47.351 56.6214
1 38.1868 49.0286 59.008
1 36.7257 46.5503 59.012
1 39.644 44.843 56.636
1 41.0701 47.4081 56.5479
1 41.1414 49.1276 58.9623
1 39.5836 46.5462 58.8775
1 42.5361 44.8823 56.6494
1 43.9545 47.3828 56.6317
1 44.0057 49.0819 59.0252
1 42.4978 46.5904 58.9972
1 45.4005 44.9685 56.6569
1 46.8872 47.4067 56.6205
1 46.9056 49.1125 58.9634
1 45.429 46.5894 58.9828
1 48.2784 44.919 56.6632
1 49.8004 47.4903 56.6911
1 49.8057 49.2074 59.0086
1 48.2916 46.5754 59.0501
1 33.9173 49.9323 56.7095
1 36.7215 49.8692 56.6288
1 39.5208 49.8893 56.5973
1 42.465 50.0094 56.6474
1 45.3605 49.9235 56.684
1 48.2665 49.9794 56.6061
1 44.03 34.0462 63.7849
1 46.9089 32.491 61.174
1 46.9946 34.063 63.7221
1 49.6501 32.448 61.5843
1 49.7769 34.0212 63.8218
1 38.1918 37.4115 61.4511
1 38.2635 39.1155 63.6858
1 41.0823 37.3167 61.3114
1 41.1531 39.0673 63.7037
1 39.6755 36.6144 63.7629
1 42.7246 34.9159 61.4043
1 44.0072 37.4283 61.3332
1 43.9935 39.0839 63.6462
1 42.5736 36.5026 63.737
1 45.4616 34.8073 61.4148
1 46.8256 37.4167 61.4065
1 46.845 39.0259 63.7127
1 45.3996 36.4846 63.6605
1 48.2683 34.9325 61.2963
1 49.8161 37.3968 61.3768
1 49.6795 39.0768 63.7385
1 48.3249 36.5656 63.7324
1 35.3211 42.4378 61.3797
1 35.2891 44.033 63.6948
1 36.7704 39.8296 61.3871
1 38.204 42.3406 61.4113
1 38.1841 44.069 63.6488
1 36.7503 41.5722 63.7443
1 39.657 39.8146 61.3209
1 41.1066 42.3844 61.3449
1 41.0721 44.057 63.6837
1 39.6571 41.6364 63.6892
1 42.5777 39.8196 61.2926
1 43.9079 42.4179 61.3979
1 43.9537 44.1302 63.7606
1 42.5639 41.5697 63.7047
1 45.4454 39.9371 61.3395
1 46.8464 42.4377 61.3701
1 46.9013 44.2064 63.7587
1 45.4169 41.6631 63.6643
1 48.3117 39.9467 61.3755
1 49.8122 42.4318 61.3474
1 49.8137 44.0661 63.7011
1 48.3407 41.6517 63.7268
1 32.5363 47.4657 61.2315
1 32.5023 49.0226 63.6875
1 33.8859 44.891 61.2703
1 35.2686 47.4394 61.3884
1 35.303 49.0991 63.7367
1 33.8191 46.523 63.6895
1 36.7711 44.8907 61.3288
1 38.2354 47.4324 61.3437
1 38.2301 49.0831 63.7072
1 36.7358 46.5952 63.6562
1 39.6537 44.9284 61.3303
1 41.1036 47.4186 61.3298
1 41.0973 49.1595 63.5841
1 39.7026 46.57 63.6483
1 42.5629 44.9528 61.4024
1 43.9337 47.4052 61.3674
1 43.9552 49.1056 63.7021
1 42.4866 46.6027 63.7103
1 45.377 44.9504 61.339
1 46.7678 47.4818 61.3138
1 46.8991 49.0715 63.6081
1 45.4399 46.6687 63.6862
1 48.3427 44.9746 61.3865
1 49.7197 47.4921 61.3367
1 49.7653 49.1469 63.6998
1 48.3665 46.5957 63.6328
1 33.872 50.0101 61.3605
1 36.823 49.9074 61.3405
1 39.6548 49.9494 61.3155
1 42.5085 49.9396 61.3377
1 45.3392 49.9642 61.3191
1 48.3287 49.9569 61.3244
1 44.131 34.2033 68.3931
1 49.9831 32.5978 66.1779
1 46.914 34.0131 68.4864
1 52.8256 32.5692 66.1791
1 49.7243 34.209 68.4816
1 38.3732 37.5219 65.9769
1 38.2447 39.0909 68.3282
1 41.1911 37.3968 66.0963
1 41.1448 39.1674 68.3978
1 39.7341 36.682 68.3795
1 42.5415 34.8201 66.0389
1 44.0013 37.3917 66.0016
1 43.9951 39.114 68.4383
1 42.5668 36.6303 68.3942
1 45.4245 34.9026 66.0428
1 46.9049 37.4656 66.0188
1 46.8977 39.0939 68.3848
1 45.4486 36.645 68.2988
1 48.3207 34.9509 66.1629
1 49.7144 37.4282 66.0626
1 49.7527 39.1216 68.3703
1 48.2743 36.6462 68.4464
1 35.3058 42.4564 66.0841
1 35.2727 44.1267 68.2937
1 36.8011 39.9143 66.032
1 38.1928 42.4559 66.0221
1 38.1616 44.0681 68.3859
1 36.7856 41.6023 68.3365
1 39.7233 39.9497 66.0736
1 41.1349 42.4897 66.0623
1 41.0789 44.1269 68.4271
1 39.6523 41.6428 68.3974
1 42.5826 39.9265 65.9981
1 43.9802 42.4743 66.0146
1 44.0465 44.1908 68.4093
1 42.5417 41.6664 68.4382
1 45.4718 39.9043 65.9599
1 46.901 42.4613 66.0439
1 46.9203 44.1521 68.3488
1 45.4066 41.6125 68.3932
1 48.2934 39.996 66.0107
1 49.8064 42.4748 66.0289
1 49.7509 44.1974 68.3119
1 48.2875 41.6246 68.3339
1 32.4763 47.481 65.9441
1 32.4624 49.18 68.2694
1 33.8661 44.8907 65.9817
1 35.4124 47.4811 66.0302
1 35.3085 49.2251 68.3516
1 33.9172 46.7007 68.3835
1 36.7491 44.9157 66.0138
1 38.2725 47.4302 65.9649
1 38.2466 49.2128 68.3798
1 36.774 46.6926 68.3913
1 39.6599 44.8988 66.0877
1 41.0672 47.4775 65.9789
1 41.0983 49.168 68.3584
1 39.6674 46.7075 68.3411
1 42.5762 44.9654 66.1163
1 43.9231 47.5075 66.0677
1 44.009 49.2043 68.3136
1 42.5592 46.6131 68.4186
1 45.4781 45.0213 66.0403
1 46.8573 47.5166 65.9922
1 46.895 49.1454 68.4177
1 45.4124 46.6971 68.4392
1 48.3802 44.9735 66.0019
1 49.8315 47.4582 66.0126
1 49.7427 49.2295 68.451
1 48.3182 46.7269 68.3463
1 33.8693 50.0333 65.9669
1 36.8379 49.9852 66.0555
1 39.6548 49.9895 66.0114
1 42.4917 49.9934 66.036
1 45.4132 50.0362 65.9747
1 48.3159 49.961 66.0951
1 44.0337 34.1623 73.2193
1 47.0788 32.6078 70.879
1 46.8514 34.2597 73.1917
1 49.804 32.5792 70.7505
1 49.6661 34.1273 73.0973
1 38.3295 37.4735 70.6624
1 38.2141 39.2046 72.9859
1 41.0967 37.49 70.7069
1 41.1661 39.2512 73.0823
1 39.7424 36.8101 73.1424
1 42.6802 34.9915 70.7629
1 44.0083 37.4959 70.7144
1 44.0553 39.1691 73.0612
1 42.5864 36.7175 73.0658
1 45.5615 34.9852 70.8603
1 46.8354 37.5222 70.7344
1 46.9073 39.1553 73.0414
1 45.3614 36.6727 73.0548
1 48.3347 35.0427 70.8396
1 49.7621 37.4785 70.7754
1 49.741 39.1273 73.1211
1 48.3849 36.6994 73.1233
1 35.3445 42.5488 70.6644
1 35.3532 44.106 72.9818
1 36.7667 40.0396 70.6541
1 38.1559 42.5202 70.7231
1 38.2461 44.254 73.0501
1 36.8445 41.7739 73.074
1 39.6399 39.9739 70.6551
1 41.0334 42.525 70.7622
1 41.0578 44.1945 72.997
1 39.6501 41.6868 73.0892
1 42.5536 40.0785 70.7221
1 43.9888 42.528 70.7795
1 43.9307 44.1667 73.1109
1 42.6278 41.735 73.0999
1 45.4593 40.033 70.7302
1 46.8812 42.4669 70.6136
1 46.8212 44.1262 73.0329
1 45.4558 41.6426 73.0845
1 48.3646 39.9553 70.698
1 49.7736 42.507 70.6453
1 49.6854 44.1504 72.9976
1 48.3109 41.715 73.0518
1 32.441 47.5316 70.6534
1 32.3864 49.1872 72.938
1 33.9517 45.0007 70.6626
1 35.2504 47.5606 70.6693
1 35.2793 49.1671 72.9902
1 33.8264 46.587 72.9964
1 36.7661 45.0179 70.6657
1 38.2168 47.5193 70.7388
1 38.1545 49.1406 73.0463
1 36.6606 46.6846 72.9719
1 39.6589 45.0917 70.655
1 41.0482 47.6037 70.6869
1 41.0472 49.1808 73.0515
1 39.5855 46.8091 73.0193
1 42.5646 44.9867 70.7278
1 43.9073 47.6157 70.7371
1 43.9298 49.2496 73.0825
1 42.5521 46.7135 73.0608
1 45.4078 45.0011 70.6752
1 46.8493 47.5427 70.783
1 46.8414 49.2713 73.2212
1 45.4153 46.7122 73.0792
1 48.2426 44.9822 70.6503
1 49.7083 47.5428 70.7271
1 49.6314 49.2067 73.1013
1 48.2223 46.7414 73.0635
1 33.7293 49.9878 70.648
1 36.753 50.0514 70.6836
1 39.5791 50.0493 70.6717
1 42.5156 50.0914 70.6945
1 45.3237 50.0411 70.7431
1 48.2288 49.9887 70.7963
1 43.9697 34.2374 77.7373
1 46.9269 32.6395 75.4816
1 46.7462 34.1299 77.8601
1 49.7833 32.5264 75.5374
1 49.5869 34.1632 77.8463
1 38.3647 37.6137 75.3222
1 38.1315 39.2385 77.7262
1 41.0595 37.586 75.4247
1 41.074 39.2907 77.758
1 39.5924 36.7702 77.7904
1 42.5274 35.1245 75.4033
1 44.0155 37.5463 75.4571
1 43.9485 39.2078 77.8563
1 42.4759 36.7168 77.6481
1 45.3904 35.0786 75.4935
1 46.9065 37.4838 75.4836
1 46.8399 39.1177 77.8349
1 45.355 36.7199 77.8746
1 48.3553 35.0218 75.4811
1 49.7532 37.5221 75.448
1 49.7289 39.0869 77.8435
1 48.2352 36.661 77.8126
1 35.3609 42.6254 75.4748
1 35.237 44.3219 77.6577
1 36.8043 40.0341 75.3615
1 38.1952 42.6224 75.345
1 38.1541 44.1858 77.6724