5538
Atoms. Timestep: 80000
1 43.6313 34.1118 7.33559
1 44.96 31.7561 7.68557
1 46.4303 34.0331 7.31236
1 47.823 31.6438 7.44938
1 49.3064 34.0813 7.24242
1 36.5364 36.8552 7.45311
1 38.0102 39.1641 7.46294
1 40.7558 37.6405 5.07204
1 40.8023 39.1724 7.37477
1 39.3169 36.707 7.47644
1 42.2369 34.9706 5.09595
1 43.555 37.473 4.89722
1 43.6804 39.0917 7.29569
1 42.1982 36.5875 7.42438
1 45.004 34.8802 5.0325
1 46.4317 37.4254 4.91171
1 46.5827 39.0957 7.3013
1 45.0344 36.5927 7.30382
1 47.8345 34.8857 5.02304
1 49.2709 37.4651 4.9405
1 49.3734 39.0889 7.34043
1 47.9284 36.5964 7.28929
1 33.8078 41.5426 7.52916
1 34.978 44.0528 7.53782
1 35.1302 39.1887 7.39953
1 37.8621 42.4684 5.03978
1 37.9008 44.1422 7.4409
1 36.5672 41.6987 7.48264
1 39.2261 39.9537 5.06867
1 40.7191 42.4411 5.06144
1 40.7042 44.1513 7.48394
1 39.4091 41.6921 7.35819
1 42.1301 39.9906 4.90706
1 43.5281 42.4173 5.1326
1 43.6674 44.096 7.34738
1 42.1848 41.6007 7.45584
1 44.9456 39.916 4.89179
1 46.534 42.3985 5.048
1 46.4605 44.0847 7.30428
1 45.0235 41.5288 7.287
1 47.9002 39.9286 4.88606
1 49.4141 42.3621 4.96091
1 49.3481 44.0519 7.27372
1 47.9174 41.5857 7.34094
1 30.7985 46.2247 7.71538
1 32.0329 48.8439 7.47831
1 32.2049 43.929 7.51352
1 34.9972 47.3561 5.19873
1 34.8827 49.0488 7.51881
1 33.5074 46.5009 7.57187
1 36.4049 44.8681 5.15797
1 37.7967 47.4334 5.0393
1 37.7588 49.0153 7.45107
1 36.3542 46.5794 7.47449
1 39.2706 44.9151 5.05697
1 40.6267 47.4543 5.04112
1 40.6337 49.0819 7.45912
1 39.2865 46.578 7.39776
1 42.1235 44.9844 5.12518
1 43.5505 47.5095 4.97825
1 43.5571 49.1677 7.34702
1 42.1468 46.6509 7.40826
1 45.0305 44.9083 4.93878
1 46.4508 47.4046 5.04914
1 46.3897 49.099 7.34538
1 44.9605 46.5394 7.32552
1 47.8477 44.8815 4.96243
1 49.3724 47.3591 4.94372
1 49.2988 48.9789 7.30455
1 47.9189 46.4711 7.3524
1 33.5289 49.9011 5.2298
1 36.2746 49.9304 5.07917
1 39.1427 49.9239 5.10322
1 42.0235 49.961 5.08702
1 44.9784 49.9129 5.01568
1 47.849 49.9348 5.02138
1 43.762 34.0076 12.0557
1 46.6427 32.3686 9.79689
1 46.5713 33.9958 12.0565
1 49.4085 32.4102 9.6572
1 49.4646 33.9954 11.9769
1 37.8889 37.4364 9.76025
1 37.876 39.1188 12.0796
1 40.7737 37.4229 9.74489
1 40.7861 39.0077 12.0703
1 39.2894 36.6253 12.073
1 42.1482 34.8687 9.77863
1 43.6164 37.305 9.67959
1 43.664 38.9576 12.0336
1 42.2463 36.455 12.0828
1 45.1002 34.8344 9.65937
1 46.5183 37.4462 9.65279
1 46.626 39.0082 12.0653
1 45.0956 36.4895 12.0171
1 47.9802 34.8913 9.5921
1 49.4194 37.3264 9.65929
1 49.4799 39.0568 11.9798
1 47.9992 36.4406 12.0694
1 35.0542 42.4493 9.90682
1 34.852 44.1115 12.2067
1 36.4613 39.9007 9.78285
1 37.8838 42.4339 9.80007
1 37.8091 44.038 12.1332
1 36.4082 41.5002 12.1946
1 39.3453 39.9837 9.79198
1 40.7337 42.4601 9.75134
1 40.6948 43.9865 12.1557
1 39.2726 41.5326 12.2349
1 42.2195 39.7799 9.78137
1 43.6451 42.3623 9.7305
1 43.6135 44.0587 12.1087
1 42.2175 41.5203 12.0904
1 45.1148 39.8449 9.67786
1 46.4822 42.3525 9.55073
1 46.5291 43.9468 12.0297
1 45.0947 41.4527 12.0339
1 48.0046 39.8867 9.67041
1 49.3357 42.456 9.68734
1 49.4121 43.9793 12.0429
1 48.0086 41.5302 12.0876
1 32.0744 47.354 9.88981
1 32.0121 49.107 12.235
1 33.5084 44.8974 9.84161
1 34.88 47.3669 9.92009
1 34.8271 49.0594 12.2069
1 33.4065 46.5759 12.2258
1 36.3616 44.9638 9.84115
1 37.7547 47.4295 9.77777
1 37.6882 48.9874 12.2122
1 36.2843 46.524 12.2673
1 39.3325 44.9571 9.82706
1 40.6746 47.4695 9.75831
1 40.6396 49.0249 12.1348
1 39.1965 46.5325 12.1297
1 42.1084 44.947 9.77102
1 43.5356 47.4374 9.78378
1 43.5076 49.0981 12.1398
1 42.1007 46.5869 12.2307
1 44.9991 44.8507 9.68113
1 46.5124 47.3766 9.64179
1 46.4619 48.9736 12.0124
1 45.0524 46.566 12.0489
1 47.8124 44.8473 9.71326
1 49.3134 47.3556 9.61451
1 49.3155 49.0268 12.0504
1 47.8876 46.4765 12.0026
1 33.3244 49.9325 9.81806
1 36.3909 49.934 9.8597
1 39.2627 49.8837 9.79581
1 42.0684 49.9516 9.83674
1 44.9235 49.965 9.74327
1 47.8423 49.8763 9.73742
1 43.7375 34.0026 16.6975
1 46.7697 32.3826 14.3934
1 46.6666 33.9064 16.6699
1 49.5542 32.424 14.307
1 49.6093 33.8443 16.6152
1 37.8935 37.4273 14.4796
1 37.8313 38.9585 16.854
1 40.6555 37.294 14.4445
1 40.7719 38.9895 16.7617
1 39.2962 36.5622 16.8896
1 42.3124 34.7985 14.437
1 43.6394 37.3413 14.3739
1 43.6901 38.9053 16.7398
1 42.171 36.4926 16.6578
1 45.1647 34.9098 14.3611
1 46.5669 37.3182 14.3263
1 46.6467 38.9552 16.6693
1 45.1539 36.3777 16.688
1 48.0539 34.8136 14.3795
1 49.4396 37.3459 14.373
1 49.5596 38.937 16.7334
1 48.0845 36.4016 16.7498
1 34.9432 42.3371 14.5844
1 34.8927 43.9726 16.9052
1 36.3954 39.7641 14.5132
1 37.7967 42.2492 14.5735
1 37.7926 43.9665 16.9417
1 36.3304 41.4689 16.8933
1 39.2843 39.7596 14.4589
1 40.7291 42.332 14.5318
1 40.6717 44.0268 16.8549
1 39.2782 41.4846 16.8757
1 42.1193 39.8385 14.3625
1 43.6872 42.2881 14.4176
1 43.6485 44.0906 16.7543
1 42.1738 41.5512 16.7731
1 45.0837 39.809 14.4015
1 46.5279 42.2653 14.3733
1 46.5802 44.0142 16.6773
1 45.0377 41.4675 16.7332
1 48.024 39.8347 14.4069
1 49.4571 42.4227 14.4606
1 49.4825 44.0658 16.8222
1 48.0674 41.4928 16.708
1 32.0935 47.4222 14.6015
1 32.027 49.1188 16.9277
1 33.4911 44.9337 14.5992
1 34.8713 47.3448 14.5744
1 34.8055 49.0665 16.9828
1 33.4177 46.5393 16.9891
1 36.3705 44.7244 14.4968
1 37.7485 47.3035 14.5167
1 37.7722 49.0008 16.9711
1 36.2846 46.4835 16.8588
1 39.2122 44.7835 14.4947
1 40.739 47.3085 14.525
1 40.6861 48.9992 16.832
1 39.2222 46.4962 16.7714
1 42.1148 44.7993 14.5058
1 43.6209 47.2512 14.4301
1 43.5851 49.0186 16.7946
1 42.1149 46.4981 16.829
1 45.1318 44.8897 14.3783
1 46.5985 47.4348 14.4267
1 46.5333 49.0617 16.7358
1 45.0684 46.5599 16.7955
1 47.9962 44.8786 14.3508
1 49.5076 47.4101 14.3875
1 49.4611 49.1361 16.7984
1 47.975 46.5916 16.7134
1 33.4608 49.8648 14.658
1 36.2975 49.8671 14.6375
1 39.2307 49.8531 14.4989
1 42.1255 49.7774 14.487
1 45.0814 49.7731 14.4029
1 47.9781 49.8887 14.4534
1 43.702 33.9606 21.4296
1 46.5315 32.476 18.9842
1 46.5943 33.9058 21.4283
1 49.3879 32.3843 18.9108
1 49.4853 33.917 21.3022
1 37.9178 37.3823 19.217
1 37.8932 39.0796 21.484
1 40.7205 37.4311 19.1475
1 40.6776 39.0486 21.4858
1 39.3604 36.5276 21.4772
1 42.2984 34.8961 19.077
1 43.637 37.2856 19.0214
1 43.7167 38.9109 21.4892
1 42.2116 36.4692 21.3751
1 45.1748 34.832 19.1609
1 46.5186 37.3377 19.0944
1 46.584 38.9769 21.4271
1 45.1662 36.4394 21.4162
1 47.9665 34.8357 19.0654
1 49.46 37.3349 19.0549
1 49.5159 38.975 21.4222
1 48.0563 36.4818 21.3831
1 34.9313 42.3655 19.2205
1 34.8873 44.0267 21.6225
1 36.4326 39.8963 19.1878
1 37.813 42.3673 19.2565
1 37.7828 43.9926 21.6082
1 36.4036 41.5467 21.5521
1 39.3368 39.881 19.0687
1 40.7639 42.3924 19.171
1 40.7626 44.0383 21.5398
1 39.2747 41.5096 21.5103
1 42.2779 39.8854 19.1071
1 43.6541 42.363 19.1109
1 43.6649 44.0552 21.4587
1 42.2939 41.4793 21.4581
1 45.1477 39.808 19.0556
1 46.6542 42.4566 19.0119
1 46.6657 44.0131 21.4342
1 45.1731 41.5923 21.4376
1 48.0369 39.7939 19.0284
1 49.5206 42.2928 19.1015
1 49.5529 44.0226 21.389
1 48.0117 41.4917 21.3608
1 32.073 47.4294 19.2652
1 32.0342 49.1444 21.6678
1 33.3872 44.8202 19.1936
1 34.9046 47.2913 19.2762
1 34.8632 49.059 21.6538
1 33.4107 46.5459 21.6404
1 36.2683 44.8365 19.2215
1 37.8215 47.3727 19.2345
1 37.78 48.9793 21.6072
1 36.3021 46.5341 21.5728
1 39.2778 44.8429 19.283
1 40.6645 47.3499 19.1356
1 40.6178 49.0245 21.4584
1 39.1904 46.4874 21.5359
1 42.175 44.9061 19.1638
1 43.6817 47.3202 19.0846
1 43.6524 49.0345 21.4958
1 42.1755 46.5595 21.5341
1 45.1092 44.7925 19.099
1 46.6707 47.3101 19.0732
1 46.5786 48.9544 21.4774
1 45.1087 46.4889 21.4131
1 48.043 44.9087 19.067
1 49.5837 47.4076 19.0511
1 49.5317 49.0163 21.5057
1 48.1195 46.5038 21.3812
1 33.4588 49.904 19.3501
1 36.2826 49.8957 19.3312
1 39.28 49.8666 19.1905
1 42.1881 49.8252 19.0769
1 45.1531 49.8299 19.1457
1 48.0149 49.8401 19.1818
1 43.7453 34.0599 26.0988
1 46.8227 32.3197 23.7231
1 46.6518 33.956 25.9951
1 49.7008 32.2817 23.6066
1 49.5654 33.8144 25.9849
1 38.0342 37.3615 23.8179
1 37.8926 38.9176 26.1686
1 40.7947 37.2675 23.7935
1 40.8786 38.9867 26.1778
1 39.4507 36.4915 26.198
1 42.3218 34.8364 23.7458
1 43.7165 37.2551 23.7617
1 43.7181 38.9383 26.1387
1 42.2999 36.4495 26.1081
1 45.199 34.6989 23.7736
1 46.6217 37.2782 23.7897
1 46.6437 38.9184 26.1597
1 45.2039 36.3863 26.1442
1 48.1788 34.8111 23.7092
1 49.5314 37.2782 23.6963
1 49.4232 38.9541 26.1214
1 48.0975 36.4158 26.0328
1 35.0329 42.3897 23.9838
1 34.8942 44.0199 26.31
1 36.4157 39.8654 23.8282
1 37.8595 42.3658 23.9395
1 37.9735 44.0208 26.2511
1 36.4853 41.4711 26.1956
1 39.2863 39.8152 23.905
1 40.8565 42.2247 23.8564
1 40.8272 43.9474 26.2176
1 39.3978 41.4657 26.2378
1 42.233 39.7366 23.7941
1 43.789 42.2979 23.754
1 43.8188 43.9422 26.1351
1 42.3671 41.4954 26.1772
1 45.1944 39.7262 23.8051
1 46.6593 42.2058 23.8717
1 46.6469 43.986 26.1114
1 45.1311 41.3692 26.167
1 48.0238 39.7557 23.7254
1 49.519 42.324 23.8239
1 49.5964 43.976 26.0944
1 48.0567 41.4178 26.182
1 32.1073 47.4126 24.0135
1 32.1737 48.9712 26.2915
1 33.4857 44.8963 24.007
1 34.8419 47.408 24.052
1 34.9409 49.0407 26.3711
1 33.5852 46.5428 26.3432
1 36.3665 44.9005 23.9676
1 37.7631 47.4122 23.8698
1 37.9002 49.0223 26.3576
1 36.4498 46.5367 26.3196
1 39.3708 44.8136 23.8808
1 40.8282 47.2674 23.8397
1 40.8375 48.9484 26.215
1 39.315 46.526 26.2504
1 42.2905 44.806 23.8114
1 43.7647 47.3049 23.799
1 43.7349 49.0115 26.0957
1 42.2452 46.4621 26.1504
1 45.2 44.755 23.8117
1 46.6481 47.2614 23.7058
1 46.6939 48.9932 26.1391
1 45.2368 46.5357 26.0985
1 48.0951 44.8522 23.7744
1 49.6069 47.2932 23.8062
1 49.577 49.0721 26.099
1 48.1017 46.5273 26.0461
1 33.4942 49.9591 24.0219
1 36.3666 49.8586 23.9856
1 39.2945 49.8234 23.8893
1 42.242 49.7499 23.8011
1 45.1769 49.7865 23.841
1 48.1164 49.7887 23.7847
1 49.7431 32.4058 28.3363
1 52.4586 32.3546 28.5087
1 38.0403 37.2871 28.5581
1 40.8679 37.2502 28.4713
1 42.3377 34.7319 28.4744
1 43.7277 37.1994 28.5664
1 45.3207 34.7243 28.391
1 46.6495 37.2653 28.4673
1 48.186 34.7473 28.4524
1 49.566 37.2698 28.4569
1 35.0866 42.3006 28.5074
1 36.552 39.7845 28.5693
1 37.9525 42.225 28.584
1 39.3745 39.7563 28.5407
1 40.8205 42.2923 28.5552
1 42.3148 39.7757 28.4976
1 43.816 42.1907 28.5718
1 45.1829 39.7386 28.5128
1 46.6677 42.2223 28.4865
1 48.103 39.7719 28.5259
1 49.5607 42.3321 28.5379
1 32.2546 47.4429 28.7251
1 33.6237 44.8486 28.6333
1 35.0411 47.3416 28.645
1 36.5017 44.8085 28.5466
1 37.9136 47.3459 28.6201
1 39.3595 44.7792 28.6298
1 40.8471 47.2768 28.5596
1 42.3026 44.7908 28.5123
1 43.7665 47.3583 28.4299
1 45.2355 44.7817 28.4175
1 46.7241 47.3024 28.449
1 48.0527 44.7636 28.4042
1 49.5763 47.2977 28.4034
1 33.5296 50.0181 28.6912
1 36.4916 49.9145 28.667
1 39.4683 49.8075 28.5753
1 42.3454 49.8935 28.5095
1 45.2714 49.851 28.5006
1 48.1757 49.8424 28.5375
1 43.8661 33.8966 30.7728
1 46.7916 33.8564 30.7352
1 49.7344 33.8083 30.8189
1 37.928 38.9258 30.8911
1 40.8565 39.006 30.812
1 39.4395 36.5175 30.8208
1 43.7193 38.9296 30.8383
1 42.3522 36.3444 30.7986
1 46.588 38.9031 30.8102
1 45.2583 36.2826 30.8304
1 49.5953 38.9228 30.761
1 48.181 36.3559 30.763
1 35.0191 43.9824 30.9287
1 37.9232 43.9544 30.9374
1 36.3946 41.4728 30.8599
1 40.8845 43.9727 30.9464
1 39.367 41.4484 30.9071
1 43.8236 43.9478 30.8876
1 42.3232 41.5523 30.8545
1 46.6973 43.9712 30.803
1 45.2421 41.449 30.8625
1 49.6974 43.9622 30.8056
1 48.2389 41.4257 30.8955
1 32.2005 49.1235 31.1128
1 35.0204 49.1029 31.0161
1 33.6143 46.5105 30.9727
1 37.9605 48.9991 30.9351
1 36.5496 46.4539 30.9587
1 40.9583 48.9914 30.9127
1 39.4445 46.5285 30.9034
1 43.7822 48.9919 30.9086
1 42.3343 46.4798 30.8705
1 46.7537 48.9624 30.802
1 45.2973 46.4877 30.8255
1 49.7128 48.8858 30.7891
1 48.2621 46.4717 30.7761
1 43.885 33.8733 35.5563
1 46.9301 32.2456 33.0328
1 46.7377 33.9009 35.4
1 49.6897 32.2833 33.1447
1 49.6375 33.8375 35.4544
1 38.0224 37.3123 33.217
1 37.9813 38.9305 35.5392
1 40.9408 37.181 33.1519
1 40.9632 38.8653 35.4517
1 39.4685 36.457 35.5688
1 42.5147 34.6829 33.1574
1 43.9112 37.2077 33.2095
1 43.8931 38.8983 35.531
1 42.3793 36.3245 35.548
1 45.3413 34.5754 33.1234
1 46.7694 37.2123 33.0924
1 46.7789 38.9186 35.5532
1 45.3201 36.404 35.4803
1 48.2201 34.7732 33.0343
1 49.5977 37.2398 33.0944
1 49.5467 38.8958 35.5478
1 48.1997 36.3754 35.5093
1 35.06 42.3457 33.3032
1 35.1256 43.9454 35.632
1 36.4644 39.8034 33.2067
1 37.9702 42.241 33.213
1 38.0097 43.9437 35.5038
1 36.5529 41.4532 35.5319
1 39.4522 39.7402 33.1954
1 40.9274 42.2257 33.2786
1 40.9044 43.8599 35.5498
1 39.4469 41.3304 35.5539
1 42.3682 39.7025 33.1664
1 43.7665 42.2938 33.2112
1 43.8285 44.0308 35.4818
1 42.4092 41.3058 35.5762
1 45.2826 39.7322 33.1499
1 46.7601 42.3147 33.1601
1 46.7696 43.9176 35.4857
1 45.2388 41.4126 35.4722
1 48.1745 39.7558 33.1533
1 49.6621 42.3471 33.1836
1 49.6385 43.8963 35.4813
1 48.2265 41.3585 35.4912
1 32.3934 47.448 33.4187
1 32.3019 49.0385 35.7397
1 33.5965 44.8231 33.3077
1 35.2002 47.3222 33.3211
1 35.1839 48.9993 35.7428
1 33.8167 46.4744 35.6445
1 36.4925 44.8268 33.2929
1 38.0388 47.2785 33.2864
1 38.0112 48.9918 35.6385
1 36.6741 46.4532 35.6326
1 39.4528 44.7894 33.2309
1 40.9535 47.2607 33.354
1 41.0029 48.9577 35.6049
1 39.5626 46.3873 35.618
1 42.3422 44.7152 33.2117
1 43.8536 47.3 33.1715
1 43.8799 49.0171 35.596
1 42.4547 46.4842 35.5319
1 45.2639 44.8164 33.1993
1 46.7294 47.3078 33.1216
1 46.847 48.9523 35.5215
1 45.286 46.4314 35.548
1 48.1466 44.8027 33.1003
1 49.6462 47.2468 33.1545
1 49.7418 48.9705 35.5102
1 48.1889 46.4084 35.5163
1 33.7259 49.8337 33.4612
1 36.5982 49.9255 33.2944
1 39.4985 49.8002 33.3325
1 42.4789 49.7546 33.2482
1 45.3857 49.808 33.2019
1 48.2291 49.7379 33.2313
1 43.9558 33.8701 40.1846
1 47.085 32.2546 37.6829
1 46.717 33.7383 40.0968
1 49.7851 32.2988 37.7913
1 49.5902 33.7786 40.1554
1 38.1669 37.2817 37.9461
1 38.0656 38.9692 40.2581
1 41.0164 37.2043 37.9159
1 41.0041 38.9356 40.1907
1 39.5256 36.4635 40.2086
1 42.5597 34.7483 37.898
1 43.9206 37.2114 37.8749
1 43.8975 38.8743 40.2211
1 42.471 36.3965 40.2773
1 45.3566 34.6729 37.7717
1 46.7777 37.2832 37.8432
1 46.8176 38.9275 40.2277
1 45.3725 36.3307 40.148
1 48.2213 34.7521 37.822
1 49.7157 37.3123 37.8792
1 49.6925 38.879 40.1859
1 48.1934 36.3233 40.1514
1 35.2913 42.4174 37.9006
1 35.206 43.9265 40.3604
1 36.7611 39.7967 37.8919
1 38.161 42.3445 37.8981
1 38.0956 43.9157 40.3471
1 36.7078 41.4949 40.2413
1 39.4859 39.7437 37.8648
1 40.9504 42.1296 37.9467
1 40.9989 43.812 40.2564
1 39.5327 41.4093 40.2585
1 42.3976 39.6747 37.7897
1 43.8454 42.0983 37.8265
1 43.9496 43.7998 40.3355
1 42.5125 41.3004 40.2215
1 45.3091 39.6701 37.8279
1 46.7367 42.2829 37.8195
1 46.8223 43.8874 40.2435
1 45.3217 41.3792 40.2023
1 48.2962 39.8129 37.863
1 49.7379 42.2883 37.8711
1 49.6759 43.9056 40.2862
1 48.2083 41.3984 40.1202
1 32.4216 47.4298 37.9937
1 32.4312 49.0345 40.4023
1 33.8514 44.9094 38.0256
1 35.2123 47.3649 38.0355
1 35.1896 48.974 40.3756
1 33.6544 46.4656 40.2849
1 36.6649 44.8261 37.9147
1 38.0432 47.3434 37.9702
1 38.0828 48.9558 40.2753
1 36.6072 46.3879 40.3111
1 39.5348 44.7715 37.9616
1 41.0359 47.2057 37.942
1 40.9502 48.9266 40.251
1 39.5698 46.4147 40.2676
1 42.4845 44.6404 37.9129
1 43.9788 47.303 37.8736
1 43.8715 48.8268 40.2435
1 42.4779 46.3385 40.112
1 45.3477 44.7006 37.8935
1 46.9074 47.2598 37.8644
1 46.8416 48.8891 40.2193
1 45.3951 46.4097 40.1765
1 48.3108 44.7591 37.9355
1 49.8005 47.2622 37.8902
1 49.7617 48.999 40.2229
1 48.2913 46.4247 40.2533
1 33.7471 49.951 38.0767
1 36.7217 49.8865 38.017
1 39.59 49.7583 37.981
1 42.4631 49.8029 37.9862
1 45.4709 49.7718 37.9098
1 48.313 49.7768 37.8797
1 46.8369 32.2965 42.546
1 49.6051 32.2292 42.5159
1 38.3265 37.2779 42.519
1 41.0919 37.1681 42.5813
1 42.5208 34.6335 42.4953
1 43.9116 37.1462 42.5938
1 45.355 34.648 42.4872
1 46.8437 37.2473 42.5451
1 48.2335 34.7496 42.516
1 49.7319 37.2639 42.5102
1 35.2651 42.2329 42.6415
1 36.759 39.7806 42.6179
1 38.188 42.1136 42.6929
1 39.5683 39.7155 42.5939
1 41.0612 42.1439 42.6247
1 42.5272 39.6673 42.5923
1 43.8955 42.2186 42.618
1 45.3935 39.6652 42.5363
1 46.8112 42.2346 42.5472
1 48.3124 39.7517 42.531
1 49.6632 42.2393 42.5481
1 32.4537 47.4263 42.6763
1 33.7785 44.7881 42.5795
1 35.1998 47.2642 42.7
1 36.5951 44.7147 42.6477
1 38.1092 47.2792 42.5606
1 39.5609 44.6538 42.6321
1 40.9838 47.2397 42.5044
1 42.407 44.7093 42.5414
1 43.9703 47.2272 42.5244
1 45.4248 44.735 42.6026
1 46.8928 47.2852 42.647
1 48.3321 44.7999 42.5857
1 49.7529 47.228 42.597
1 33.8354 49.8395 42.683
1 36.728 49.8993 42.655
1 39.5563 49.7814 42.6204
1 42.5034 49.7456 42.6032
1 45.4417 49.7588 42.5767
1 48.3384 49.7338 42.5287
1 43.9182 33.8227 44.8863
1 46.8043 33.7571 44.9618
1 49.7829 33.7973 44.8296
1 38.0871 38.7956 44.8911
1 41.1002 38.8317 44.8964
1 39.6602 36.3408 44.8291
1 43.9578 38.8086 44.9732
1 42.4585 36.2264 44.873
1 46.8452 38.8118 44.8988
1 45.4196 36.212 44.9079
1 49.8023 38.8354 44.8957
1 48.3248 36.2761 44.8986
1 35.1783 43.8955 44.9476
1 38.1107 43.8057 44.9736
1 36.6174 41.2649 45.0074
1 41.0928 43.7872 44.9259
1 39.539 41.302 45.0338
1 43.9877 43.9162 44.8805
1 42.537 41.3214 44.916
1 46.9273 43.8004 44.9306
1 45.441 41.359 44.9085
1 49.7975 43.8184 44.9449
1 48.2782 41.298 44.8978
1 32.5391 48.9557 45.0316
1 35.2797 48.9641 44.9951
1 33.8323 46.4807 45.0495
1 38.1868 48.9992 44.9082
1 36.7034 46.4337 44.9417
1 41.0552 48.9104 44.9723
1 39.601 46.3893 44.9021
1 43.9664 48.824 44.9614
1 42.5526 46.3466 44.8695
1 46.8451 49.0189 44.9313
1 45.4908 46.4213 44.9488
1 49.8018 48.9374 44.9597
1 48.2833 46.4435 44.9817
1 43.9747 33.8636 49.6489
1 46.9881 32.1363 47.3243
1 46.8401 33.7023 49.6306
1 49.7368 32.2503 47.1613
1 49.7933 33.7529 49.6189
1 38.1846 37.1401 47.2755
1 38.1497 38.7925 49.6856
1 40.9986 37.0454 47.2285
1 41.0209 38.7544 49.6178
1 39.6411 36.3836 49.7407
1 42.4773 34.6183 47.3053
1 43.9396 37.0777 47.2629
1 43.9754 38.8514 49.5578
1 42.5048 36.2966 49.6163
1 45.3052 34.5193 47.2851
1 46.8228 37.088 47.2158
1 46.7784 38.7864 49.6418
1 45.3536 36.2716 49.6233
1 48.2015 34.6232 47.2567
1 49.7842 37.1917 47.2625
1 49.789 38.7609 49.6595
1 48.2392 36.2787 49.6029
1 35.2555 42.2316 47.3523
1 35.1492 43.9191 49.6595
1 36.7758 39.6801 47.3506
1 38.1036 42.1655 47.347
1 38.094 43.8856 49.6141
1 36.6539 41.4492 49.7429
1 39.6689 39.5667 47.2833
1 40.9909 42.077 47.2615
1 40.9823 43.8602 49.5782
1 39.5505 41.3169 49.6631
1 42.5246 39.6396 47.2541
1 43.9148 42.1725 47.2538
1 43.8284 43.8273 49.6917
1 42.4134 41.3165 49.5867
1 45.3902 39.6786 47.2492
1 46.8263 42.1927 47.272
1 46.8762 43.7894 49.6055
1 45.3371 41.3902 49.6344
1 48.2602 39.6014 47.2674
1 49.6773 42.1554 47.223
1 49.8413 43.8848 49.5815
1 48.3308 41.3337 49.6386
1 32.433 47.4763 47.3428
1 32.4091 49.0561 49.7159
1 33.9065 44.8055 47.3351
1 35.2491 47.2918 47.3151
1 35.2438 49.0191 49.6249
1 33.8057 46.4878 49.5789
1 36.6004 44.7788 47.2578
1 38.1665 47.3381 47.2618
1 38.1092 48.9993 49.6046
1 36.6761 46.4102 49.5517
1 39.5927 44.7385 47.2444
1 40.9674 47.2632 47.2321
1 41.0468 48.9377 49.6557
1 39.5673 46.3603 49.5547
1 42.4955 44.6937 47.2522
1 43.854 47.212 47.316
1 44.0148 48.9609 49.614
1 42.5049 46.4609 49.6986
1 45.3041 44.6638 47.3283
1 46.8634 47.1326 47.2999
1 46.8285 48.798 49.582
1 45.3679 46.3343 49.6467
1 48.3663 44.6553 47.3092
1 49.7841 47.1413 47.3618
1 49.8031 48.9054 49.5596
1 48.2482 46.3022 49.5994
1 33.8244 49.9195 47.3419
1 36.7569 49.8148 47.2501
1 39.6838 49.8881 47.2444
1 42.5184 49.7142 47.2575
1 45.3863 49.6697 47.3528
1 48.3635 49.8122 47.2789
1 44.0214 33.8116 54.3594
1 46.9347 32.1976 51.9931
1 46.9674 33.7861 54.3685
1 49.7729 32.2651 52.0455
1 49.7188 33.8841 54.2875
1 38.1861 37.2589 52.1269
1 38.0069 38.9234 54.341
1 41.0786 37.1511 52.0254
1 41.0349 38.8843 54.2457
1 39.5991 36.5359 54.3637
1 42.648 34.6452 51.9445
1 43.9513 37.117 51.9593
1 43.9892 38.8094 54.3322
1 42.5198 36.3114 54.3922
1 45.4547 34.5451 52.0047
1 46.8587 37.1317 51.9839
1 46.8521 38.8067 54.3211
1 45.3491 36.222 54.41
1 48.3257 34.7307 51.9193
1 49.7425 37.1238 51.913
1 49.6845 38.7779 54.2306
1 48.2056 36.4018 54.3816
1 35.1825 42.253 52.0036
1 35.2391 43.8961 54.3052
1 36.675 39.7865 51.9871
1 38.0974 42.2696 52.0184
1 38.0427 43.9561 54.3697
1 36.6856 41.4378 54.3504
1 39.545 39.6681 51.9827
1 41.0374 42.1809 51.844
1 41.0288 43.9621 54.294
1 39.5643 41.3766 54.2849
1 42.5013 39.6685 51.9556
1 44.0065 42.1564 52.0039
1 43.9247 43.9185 54.3683
1 42.4551 41.3667 54.2774
1 45.3747 39.6348 52.0014
1 46.7862 42.1591 51.9313
1 46.9076 44.0356 54.3076
1 45.3916 41.3372 54.3364
1 48.2737 39.6774 51.9474
1 49.7376 42.199 51.9675
1 49.7904 43.8779 54.2936
1 48.2214 41.3214 54.2928
1 32.4584 47.3256 51.9842
1 32.426 48.8259 54.2698
1 33.684 44.8076 51.9869
1 35.2741 47.2219 51.9705
1 35.2055 48.9233 54.2533
1 33.7582 46.3701 54.3577
1 36.6931 44.7323 51.9539
1 38.1986 47.2105 51.9074
1 38.159 48.9518 54.2949
1 36.6391 46.4712 54.3729
1 39.5759 44.6504 52.0149
1 41.1281 47.1474 52.0248
1 41.1653 48.9153 54.3202
1 39.5343 46.4919 54.3256
1 42.5083 44.7283 52.0069
1 43.9992 47.3503 51.9719
1 43.9758 48.967 54.3943
1 42.4154 46.4675 54.4281
1 45.3639 44.6827 51.9997
1 46.8412 47.2492 51.9456
1 46.907 48.8995 54.3097
1 45.3764 46.4293 54.2414
1 48.357 44.7008 51.9127
1 49.7382 47.2694 51.9167
1 49.88 48.9527 54.242
1 48.3661 46.4125 54.2974
1 33.8094 49.785 52.0255
1 36.7087 49.7085 51.9816
1 39.6431 49.7376 52.0304
1 42.5895 49.7684 51.8891
1 45.4209 49.8124 51.9444
1 48.2481 49.7533 51.9256
1 43.9539 33.911 59.0209
1 47.0235 32.2187 56.782
1 46.9214 33.8262 59.0498
1 49.7657 32.3016 56.7132
1 49.7127 33.8889 59.0335
1 38.2123 37.4371 56.7012
1 38.1258 39.001 59.0586
1 40.9611 37.2097 56.6382
1 40.9902 38.9844 58.9992
1 39.5373 36.5066 59.067
1 42.5678 34.6541 56.6486
1 43.8989 37.1745 56.6884
1 43.8566 38.9671 58.9782
1 42.4994 36.4247 59.0212
1 45.4116 34.635 56.7419
1 46.8206 37.1819 56.7502
1 46.8118 38.9869 58.9843
1 45.4373 36.4233 59.0017
1 48.2725 34.7141 56.696
1 49.7489 37.2115 56.6644
1 49.7961 38.9189 59.0521
1 48.3002 36.5182 59.0432
1 35.346 42.4181 56.6269
1 35.1182 44.0528 59.0083
1 36.7546 39.879 56.7236
1 38.1743 42.3302 56.698
1 37.9968 44.0064 59.0414
1 36.5789 41.5165 58.9826
1 39.6479 39.8137 56.6675
1 41.0336 42.3012 56.6143
1 40.9086 44.0223 58.9948
1 39.4795 41.5549 59.0029
1 42.4841 39.7201 56.6379
1 43.9143 42.2886 56.6716
1 43.9003 43.9582 59.0447
1 42.3678 41.4563 58.8964
1 45.3715 39.7914 56.6566
1 46.9073 42.297 56.6642
1 46.8326 43.9428 59.0293
1 45.3602 41.5107 58.919
1 48.2948 39.6844 56.7152
1 49.816 42.2446 56.6935
1 49.8108 43.9669 59.0475
1 48.315 41.3771 59.0412
1 32.3619 47.2888 56.6483
1 32.4408 49.0691 58.986
1 33.7542 44.8782 56.6486
1 35.1379 47.328 56.6708
1 35.234 49.0241 58.916
1 33.6779 46.5934 58.9173
1 36.6526 44.8916 56.6865
1 38.1818 47.3376 56.6589
1 38.129 49.0209 58.992
1 36.5796 46.5837 59.0029
1 39.6132 44.8214 56.7151
1 41.0798 47.449 56.7067
1 41.1116 49.0616 59.055
1 39.5828 46.6031 59.0049
1 42.4514 44.8256 56.762
1 43.9496 47.3416 56.6761
1 43.9302 49.0248 58.9618
1 42.5204 46.5512 59.0183
1 45.4389 44.8061 56.652
1 46.8822 47.2393 56.6572
1 46.823 49.0084 59.0495
1 45.3625 46.5163 59.064
1 48.2744 44.8059 56.6909
1 49.858 47.2832 56.6213
1 49.7356 49.0099 58.9955
1 48.2665 46.5323 59.0025
1 33.802 49.8872 56.6389
1 36.6998 49.803 56.617
1 39.6997 49.8646 56.6266
1 42.6007 49.8823 56.6625
1 45.5747 49.8094 56.6632
1 48.4027 49.717 56.6157
1 43.9024 34.0383 63.7211
1 47.0268 32.3587 61.4753
1 46.8074 33.9872 63.6617
1 49.8095 32.3283 61.359
1 49.6954 33.9443 63.6599
1 38.0972 37.4139 61.3609
1 38.1365 39.0846 63.6632
1 40.9582 37.3001 61.3482
1 40.9469 38.9863 63.8294
1 39.5042 36.5815 63.6971
1 42.5951 34.7863 61.3594
1 43.9545 37.2916 61.3428
1 43.9253 39.029 63.7132
1 42.4886 36.4795 63.6493
1 45.4238 34.7182 61.3304
1 46.8099 37.3352 61.4051
1 46.7182 39.075 63.6526
1 45.3801 36.5214 63.7362
1 48.3391 34.7529 61.3726
1 49.7608 37.3715 61.353
1 49.7754 38.9952 63.7171
1 48.2626 36.4584 63.6965
1 35.1446 42.4483 61.3801
1 35.2209 44.0887 63.662
1 36.7105 39.9276 61.297
1 38.1081 42.3339 61.3165
1 38.1048 44.1767 63.7185
1 36.6815 41.7039 63.6947
1 39.6141 39.8846 61.3784
1 41.0012 42.3194 61.3227
1 40.9433 44.1086 63.6763
1 39.5464 41.5991 63.7046
1 42.4656 39.8102 61.3879
1 43.8501 42.2742 61.2409
1 43.8273 43.9575 63.6838
1 42.4074 41.4344 63.665
1 45.3798 39.7957 61.3037
1 46.827 42.3233 61.4143
1 46.8494 43.9978 63.6977
1 45.3261 41.5835 63.6513
1 48.3037 39.8527 61.4062
1 49.6489 42.2969 61.3352
1 49.7196 44.0441 63.7148
1 48.183 41.5194 63.7024
1 32.3179 47.5053 61.218
1 32.2221 49.2216 63.5756
1 33.7656 44.9377 61.3255
1 35.1817 47.4186 61.3488
1 35.1141 49.1098 63.7765
1 33.7056 46.605 63.707
1 36.655 44.9 61.2844
1 38.0415 47.3653 61.4085
1 38.0413 49.1687 63.7014
1 36.601 46.5699 63.7189
1 39.4849 44.823 61.3412
1 40.9263 47.3722 61.3218
1 40.9669 49.1367 63.7373
1 39.5316 46.5448 63.6589
1 42.3876 44.8502 61.2824
1 43.8629 47.4816 61.4576
1 43.9953 49.0634 63.78
1 42.4572 46.5577 63.6909
1 45.3035 44.8434 61.3577
1 46.8044 47.3534 61.4023
1 46.8551 49.0478 63.7336
1 45.4293 46.5303 63.8127
1 48.2404 44.837 61.3863
1 49.7702 47.3922 61.3731
1 49.7266 49.1473 63.7631
1 48.3336 46.5084 63.6466
1 33.7694 49.9754 61.2858
1 36.6331 49.863 61.3636
1 39.5952 49.9284 61.3081
1 42.5364 49.9328 61.3382
1 45.3811 49.9649 61.3632
1 48.3589 49.9279 61.3485
1 43.9813 34.0392 68.4086
1 49.8342 32.4716 66.0382
1 46.8444 33.9968 68.4029
1 52.5655 32.3437 66.091
1 49.7448 33.9727 68.398
1 38.0932 37.4782 66.0711
1 38.0516 39.0611 68.3707
1 40.9328 37.3879 66.0501
1 40.948 39.0273 68.3811
1 39.5986 36.616 68.43
1 42.5468 34.9251 66.0543
1 43.9257 37.4087 66.0577
1 43.8994 39.0177 68.3857
1 42.4365 36.489 68.3406
1 45.3869 34.8769 66.0942
1 46.7741 37.331 66.0085
1 46.7869 38.9746 68.3858
1 45.2861 36.4664 68.4176
1 48.3077 34.7489 66.0167
1 49.7736 37.2616 66.0178
1 49.6428 38.9846 68.3418
1 48.2659 36.4489 68.3233
1 35.2028 42.4369 65.9703
1 34.9999 44.1075 68.3781
1 36.7439 40.0104 65.9715
1 38.148 42.4326 66.091
1 38.0597 44.1694 68.4223
1 36.6553 41.6167 68.3728
1 39.5244 39.8771 66.0755
1 41.0028 42.3968 66.0125
1 40.9573 44.0945 68.3174
1 39.4637 41.4961 68.2914
1 42.4389 39.8641 66.0346
1 43.8491 42.4424 66.0125
1 43.775 44.0238 68.3825
1 42.4381 41.5113 68.3597
1 45.314 39.8771 66.0346
1 46.8051 42.3023 66.0383
1 46.7456 44.0044 68.3069
1 45.3404 41.5613 68.3198
1 48.2412 39.8118 66.0671
1 49.6752 42.3097 66.0148
1 49.6752 44.1034 68.4731
1 48.259 41.5965 68.3469
1 32.301 47.4904 65.9874
1 32.2999 49.0788 68.302
1 33.6953 44.9184 65.9912
1 35.1674 47.4017 66.0589
1 35.1185 49.1863 68.4062
1 33.6662 46.5921 68.3202
1 36.5446 44.8449 66.0665
1 38.1077 47.5092 66.007
1 37.9689 49.0827 68.3962
1 36.5316 46.5512 68.3472
1 39.4695 44.9278 66.0484
1 40.9953 47.48 65.9989
1 40.8867 49.1585 68.3144
1 39.5204 46.6608 68.3921
1 42.4468 44.9226 66.0315
1 43.9492 47.3046 66.0859
1 43.8327 49.1463 68.4099
1 42.3237 46.6621 68.3789
1 45.3674 44.8544 66.0819
1 46.8679 47.386 66.1066
1 46.8806 49.0597 68.3656
1 45.3567 46.5892 68.4515
1 48.2388 44.8599 66.1305
1 49.6835 47.3892 66.0675
1 49.7406 49.1284 68.4518
1 48.291 46.5116 68.4601
1 33.6965 49.9331 66.0074
1 36.5568 50.0166 66.0199
1 39.5334 49.977 66.0928
1 42.4968 49.9154 66.0498
1 45.4402 49.9096 66.1242
1 48.2725 50.0063 66.0972
1 43.8828 34.1349 73.0756
1 46.6983 32.4378 70.6355
1 46.7544 34.0354 73.0176
1 49.6462 32.4851 70.7786
1 49.5663 34.052 73.0717
1 38.141 37.5805 70.7417
1 38.0188 39.2076 73.0757
1 40.9759 37.4551 70.7548
1 40.9197 39.0876 73.1587
1 39.5337 36.7451 73.0963
1 42.4422 34.9601 70.7424
1 43.8812 37.3664 70.7589
1 43.7907 39.1329 73.0645
1 42.3887 36.57 73.0995
1 45.2273 34.9023 70.7803
1 46.8585 37.3955 70.6986
1 46.7664 39.0328 73.1356
1 45.3095 36.6325 73.1018
1 48.2242 34.844 70.715
1 49.7796 37.3632 70.7015
1 49.6444 39.0604 73.0935
1 48.2166 36.5312 73.0914
1 35.1056 42.4141 70.7411
1 35.1393 44.1771 73.114
1 36.6093 39.9659 70.6963
1 38.0086 42.4424 70.7237
1 38.0181 44.2127 73.1011
1 36.5139 41.6606 73.0612
1 39.5095 39.9801 70.7082
1 40.9364 42.3992 70.6611
1 40.8669 44.1342 72.9943
1 39.4478 41.625 73.0787
1 42.3845 39.9393 70.7434
1 43.8669 42.4293 70.6792
1 43.8562 44.0607 73.1039
1 42.3737 41.6088 73.1177
1 45.3509 39.8799 70.7264
1 46.8198 42.4512 70.649
1 46.7625 44.1165 73.1218
1 45.298 41.5546 73.0824
1 48.2723 39.8917 70.7183
1 49.7047 42.4181 70.744
1 49.6718 44.1232 73.0902
1 48.1648 41.6107 73.1379
1 32.3097 47.5275 70.6838
1 32.2699 49.1761 73.0502
1 33.7624 45.0887 70.7568
1 35.1478 47.5258 70.7314
1 35.0311 49.22 73.0842
1 33.6345 46.7477 72.9704
1 36.5936 44.9519 70.7525
1 38.0058 47.4466 70.7823
1 37.9718 49.1524 73.0542
1 36.5415 46.682 73.0913
1 39.4838 44.9819 70.6471
1 40.947 47.5069 70.7523
1 40.9062 49.1375 73.0788
1 39.5205 46.697 73.098
1 42.3609 44.9767 70.69
1 43.7924 47.4395 70.7274
1 43.8193 49.1286 73.0913
1 42.3726 46.632 73.0975
1 45.2545 44.8981 70.7997
1 46.6977 47.5308 70.7224
1 46.71 49.1349 73.144
1 45.264 46.5975 73.1096
1 48.1936 44.9136 70.8282
1 49.6292 47.4261 70.7522
1 49.6762 49.0968 73.0769
1 48.1797 46.6252 73.1211
1 33.582 50.0749 70.638
1 36.4972 49.9894 70.7244
1 39.457 49.9801 70.7533
1 42.413 49.9814 70.7383
1 45.3214 49.9843 70.8244
1 48.2511 49.9228 70.7179
1 43.7628 34.1471 77.7412
1 46.8376 32.6006 75.3543
1 46.762 34.0204 77.7916
1 49.6098 32.5078 75.3356
1 49.5777 34.083 77.7395
1 38.0632 37.6015 75.3969
1 37.8936 39.1829 77.7796
1 40.8678 37.3222 75.4552
1 40.7982 39.0931 77.748
1 39.4211 36.706 77.7542
1 42.3814 34.9527 75.3403
1 43.7681 37.4159 75.478
1 43.7468 39.0292 77.7385
1 42.2734 36.5281 77.748
1 45.3197 34.9252 75.4344
1 46.7393 37.4568 75.4957
1 46.6685 39.0742 77.8205
1 45.232 36.5203 77.7511
1 48.1386 35.0162 75.3966
1 49.5362 37.483 75.3949
1 49.5509 39.1124 77.7851
1 48.2133 36.564 77.8181
1 35.0804 42.5489 75.4573
1 34.9551 44.1298 77.7968
1 36.5755 39.9644 75.4344
1 37.8976 42.4695 75.3852
1 37.8509 44.2088 77.7976