5538
Atoms. Timestep: 90000
1 43.4568 34.0497 7.47443
1 45.0782 31.8386 7.06331
1 46.3633 34.1739 7.37545
1 47.727 31.6396 7.45875
1 49.2455 34.0919 7.34593
1 36.1711 36.7456 7.55338
1 37.577 39.1476 7.41324
1 40.6242 37.4631 5.14689
1 40.5782 39.0467 7.44218
1 39.0475 36.6638 7.36357
1 42.0335 35.0121 5.29732
1 43.4541 37.3513 5.11278
1 43.4476 39.0587 7.42819
1 41.9674 36.6075 7.45663
1 44.8992 34.8793 5.13242
1 46.3199 37.305 5.00772
1 46.433 39.0606 7.3917
1 44.9232 36.636 7.3779
1 47.8487 34.7987 5.05626
1 49.1628 37.4327 5.00914
1 49.2715 39.0604 7.31767
1 47.8552 36.5152 7.33195
1 33.4859 41.6094 7.89184
1 34.7879 44.0589 7.5579
1 34.7333 39.1665 7.68367
1 37.5587 42.4012 5.24924
1 37.7335 43.9978 7.53944
1 36.199 41.6943 7.63779
1 39.1241 39.9063 5.17576
1 40.4346 42.4147 5.14659
1 40.6192 44.044 7.5157
1 39.0991 41.511 7.58293
1 41.9362 39.9626 5.14175
1 43.4113 42.3312 5.12082
1 43.4515 44.0383 7.41135
1 42.0282 41.5189 7.37997
1 44.8173 39.909 5.08143
1 46.3091 42.2428 5.11875
1 46.3473 44.0942 7.36985
1 44.9004 41.534 7.44006
1 47.7623 39.8682 4.95441
1 49.1665 42.4113 5.08666
1 49.2421 44.1637 7.43159
1 47.7272 41.6087 7.35265
1 30.5952 46.4844 7.95596
1 31.945 48.9833 7.52176
1 32.0374 44.0442 7.81632
1 34.8134 47.4236 5.39761
1 34.8464 49.0787 7.63901
1 33.3646 46.5706 7.5576
1 36.2687 45.0087 5.31419
1 37.688 47.4379 5.2112
1 37.7912 49.0956 7.44361
1 36.2562 46.607 7.59423
1 39.1406 44.9442 5.17032
1 40.4951 47.3436 5.13887
1 40.6315 49.0037 7.41698
1 39.17 46.5025 7.52905
1 41.9567 44.8102 5.10201
1 43.4609 47.2991 5.10273
1 43.4702 49.0071 7.3896
1 41.9934 46.4846 7.35879
1 44.9516 44.7865 5.04528
1 46.2962 47.389 4.94138
1 46.362 48.9906 7.42726
1 44.8787 46.56 7.31066
1 47.7017 44.8922 4.99961
1 49.1534 47.3333 5.01204
1 49.1937 48.9767 7.33655
1 47.7209 46.5749 7.35186
1 33.469 49.8808 5.39335
1 36.2797 49.9406 5.17573
1 39.1819 49.8839 5.06464
1 42.0409 49.8862 5.07096
1 44.9278 49.898 5.10135
1 47.8025 49.9108 5.04071
1 43.6449 34.1732 12.1018
1 46.1818 32.5396 9.65739
1 46.4603 34.1157 12.1271
1 49.1494 32.3841 9.73333
1 49.3208 34.0379 12.1434
1 37.6127 37.4268 9.80655
1 37.7131 39.0356 12.2359
1 40.5448 37.3162 9.78446
1 40.6421 39.0986 12.1004
1 39.2436 36.6263 12.2074
1 41.9915 34.8899 9.82168
1 43.4166 37.399 9.74495
1 43.4488 39.0909 12.1832
1 42.0488 36.5849 12.1922
1 44.8294 34.9204 9.77766
1 46.3771 37.4273 9.7389
1 46.4085 39.1934 12.0778
1 44.9968 36.6392 12.2043
1 47.8843 34.8462 9.75954
1 49.2784 37.3646 9.63581
1 49.3811 39.0453 12.015
1 47.871 36.5841 12.0352
1 34.8152 42.3774 10.1078
1 34.8101 43.9805 12.3467
1 36.2117 39.8603 9.90833
1 37.6428 42.3087 9.95059
1 37.6953 43.9668 12.2356
1 36.2344 41.4307 12.3718
1 39.0501 39.8315 9.84545
1 40.5887 42.3693 9.82438
1 40.639 44.0931 12.1542
1 39.1953 41.5394 12.166
1 42.0151 39.8846 9.78989
1 43.4105 42.31 9.82737
1 43.5036 44.0336 12.1274
1 42.121 41.5913 12.228
1 44.9305 39.8743 9.84023
1 46.3161 42.3719 9.66948
1 46.4418 44.0075 12.0675
1 44.9528 41.5619 12.2062
1 47.8317 39.9313 9.71146
1 49.253 42.3193 9.68929
1 49.3 44.0271 12.0578
1 47.8383 41.5571 12.1302
1 32.0435 47.4157 10.0332
1 32.0305 48.9902 12.4723
1 33.4179 44.9181 9.94779
1 34.8326 47.4945 9.93257
1 34.8522 49.0127 12.2547
1 33.3849 46.5922 12.2996
1 36.2495 44.8245 9.89397
1 37.7272 47.4373 9.94105
1 37.7949 49.0415 12.262
1 36.3092 46.4986 12.2657
1 39.0961 44.8491 9.85306
1 40.6692 47.3571 9.89904
1 40.632 48.951 12.2796
1 39.192 46.4721 12.2821
1 42.0991 44.895 9.81235
1 43.5209 47.3264 9.77464
1 43.4626 48.9934 12.1641
1 42.0597 46.5145 12.2103
1 45.0039 44.8486 9.82633
1 46.356 47.3831 9.84706
1 46.4472 49.0042 12.1732
1 44.9873 46.5605 12.1537
1 47.7675 44.8913 9.771
1 49.2235 47.3175 9.70165
1 49.2383 49.0325 12.0807
1 47.8191 46.5358 12.0793
1 33.319 49.9198 10.0162
1 36.354 49.8833 9.85606
1 39.2049 49.8601 9.8519
1 42.1026 49.802 9.75064
1 44.984 49.8573 9.75553
1 47.7864 49.7696 9.7818
1 43.6687 34.0186 16.8084
1 46.7067 32.5619 14.4734
1 46.6316 34.0376 16.7927
1 49.422 32.493 14.4399
1 49.5367 34.0813 16.8105
1 37.889 37.3608 14.6375
1 37.8873 38.9384 16.8976
1 40.7024 37.3188 14.5894
1 40.7901 38.9538 16.9038
1 39.3673 36.5449 16.9513
1 42.2546 34.8588 14.4194
1 43.6146 37.361 14.5171
1 43.6112 38.9525 16.8793
1 42.2199 36.3903 16.8226
1 45.0627 34.834 14.4676
1 46.5717 37.4585 14.4213
1 46.4808 39.0295 16.7873
1 45.1228 36.523 16.7889
1 48.0306 34.9975 14.5057
1 49.4197 37.3755 14.3752
1 49.3967 39.035 16.8009
1 48.0143 36.476 16.7722
1 34.8963 42.3489 14.6365
1 35.013 43.9254 16.9589
1 36.3003 39.7622 14.6469
1 37.7094 42.224 14.6512
1 37.8867 43.9353 16.9231
1 36.3754 41.4259 16.9627
1 39.255 39.7787 14.5024
1 40.5935 42.3135 14.5225
1 40.7434 43.9846 16.8473
1 39.2459 41.4394 16.8158
1 42.1167 39.8468 14.5415
1 43.5362 42.3463 14.4779
1 43.6558 43.9338 16.7754
1 42.1536 41.4094 16.9327
1 45.0064 39.8378 14.4521
1 46.4531 42.4237 14.4499
1 46.5504 44.023 16.7853
1 45.0487 41.4806 16.7921
1 47.9002 39.8853 14.4004
1 49.3602 42.411 14.2958
1 49.3781 44.067 16.7389
1 47.9663 41.5927 16.7614
1 32.0142 47.373 14.7962
1 32.0932 49.0634 16.9733
1 33.4366 44.7912 14.6632
1 34.8083 47.3025 14.5967
1 34.9721 49.0048 16.916
1 33.5146 46.6357 16.9938
1 36.2262 44.7782 14.6431
1 37.7392 47.2492 14.6321
1 37.8844 49.0372 16.8946
1 36.3271 46.5576 16.9373
1 39.1787 44.9087 14.5576
1 40.6775 47.3539 14.5503
1 40.7498 48.9644 16.9342
1 39.2879 46.478 16.8296
1 42.114 44.857 14.4922
1 43.5643 47.3868 14.4865
1 43.6336 49.0205 16.8729
1 42.1661 46.4675 16.8277
1 44.9991 44.8611 14.4624
1 46.507 47.3346 14.5358
1 46.4925 49.011 16.8377
1 45.0268 46.5669 16.8414
1 47.9066 44.86 14.3855
1 49.4153 47.3411 14.4116
1 49.4567 49.0714 16.7967
1 47.9858 46.532 16.7635
1 33.5077 49.8664 14.6475
1 36.3685 49.7086 14.603
1 39.2753 49.8303 14.5756
1 42.1036 49.9182 14.6056
1 44.9973 49.8225 14.5317
1 47.8974 49.8883 14.4693
1 43.7886 34.0906 21.5651
1 46.7886 32.4676 19.1103
1 46.6149 34.033 21.4049
1 49.6045 32.4017 19.0502
1 49.4845 33.999 21.4095
1 37.9895 37.3099 19.3117
1 38.0222 38.8784 21.5728
1 40.8089 37.2372 19.261
1 40.9024 38.9841 21.5429
1 39.4967 36.476 21.5639
1 42.2686 34.8071 19.2093
1 43.7387 37.2841 19.1471
1 43.7637 39.0041 21.5113
1 42.3286 36.4218 21.4909
1 45.0736 34.7762 19.1343
1 46.6067 37.3143 19.1918
1 46.6738 39.0202 21.5213
1 45.2157 36.4991 21.5044
1 48.0249 34.9104 19.1793
1 49.5224 37.3835 19.1429
1 49.436 39.0744 21.4959
1 48.1763 36.4942 21.5301
1 35.1528 42.3178 19.3257
1 35.1947 43.9118 21.7002
1 36.4906 39.7688 19.2682
1 37.9456 42.3062 19.2436
1 38.016 43.936 21.6199
1 36.5757 41.3816 21.6442
1 39.3326 39.7027 19.2159
1 40.7532 42.2997 19.2245
1 40.8402 44.0078 21.5747
1 39.4143 41.4164 21.479
1 42.2377 39.8501 19.254
1 43.6855 42.3453 19.1292
1 43.6587 44.1069 21.5472
1 42.3278 41.5704 21.5807
1 45.1622 39.88 19.1525
1 46.5784 42.3828 19.1205
1 46.5449 44.1038 21.5152
1 45.1047 41.5243 21.52
1 48.006 39.8922 19.0801
1 49.4132 42.4433 19.1241
1 49.4529 44.1147 21.5305
1 48.0467 41.5868 21.5245
1 32.2488 47.3791 19.2974
1 32.2639 48.8973 21.7002
1 33.6918 44.823 19.2888
1 34.983 47.3393 19.3529
1 35.1216 49.0252 21.5202
1 33.7114 46.433 21.6129
1 36.4923 44.7759 19.2167
1 37.8865 47.2976 19.2297
1 37.987 49.0071 21.598
1 36.5254 46.4259 21.5497
1 39.4251 44.8694 19.235
1 40.8706 47.3055 19.2365
1 40.8153 48.9433 21.5931
1 39.406 46.4881 21.6063
1 42.2745 44.8576 19.2023
1 43.6463 47.4021 19.1689
1 43.7723 49.0421 21.5821
1 42.2681 46.5311 21.5085
1 45.1353 44.9134 19.1037
1 46.596 47.3877 19.1787
1 46.6163 49.0789 21.4517
1 45.2104 46.5515 21.506
1 47.981 44.9203 19.1409
1 49.4517 47.3478 19.0931
1 49.4636 49.0778 21.4275
1 48.0505 46.5196 21.4619
1 33.5483 49.8533 19.2645
1 36.5102 49.9257 19.2363
1 39.3724 49.8192 19.2458
1 42.2515 49.881 19.2568
1 44.9961 49.8941 19.1979
1 47.9132 49.8236 19.1507
1 43.8541 34.0677 26.1272
1 46.5809 32.4892 23.8166
1 46.7664 34.0291 26.1384
1 49.3661 32.4006 23.7897
1 49.5696 33.9854 26.0637
1 38.0961 37.3323 23.9526
1 38.0993 38.9783 26.2719
1 40.8947 37.3169 23.8113
1 41.022 38.9123 26.1556
1 39.5409 36.571 26.1878
1 42.4299 34.8019 23.8568
1 43.7674 37.3518 23.7781
1 43.8672 39.093 26.1918
1 42.3809 36.4919 26.2052
1 45.2324 34.8358 23.8522
1 46.756 37.3371 23.8372
1 46.816 39.0908 26.232
1 45.3275 36.527 26.1899
1 48.0676 34.8624 23.8008
1 49.6083 37.4181 23.8173
1 49.6628 39.0926 26.1306
1 48.186 36.5439 26.1535
1 35.1842 42.2644 24.0834
1 35.186 43.9414 26.3128
1 36.6774 39.8406 23.944
1 38.028 42.359 23.9229
1 38.1086 43.9178 26.2554
1 36.7263 41.4504 26.2738
1 39.4325 39.8247 23.8562
1 40.8935 42.2852 23.9197
1 40.9842 43.9654 26.2809
1 39.5008 41.4564 26.309
1 42.41 39.8559 23.8059
1 43.8403 42.4192 23.8343
1 43.9036 44.0086 26.2936
1 42.4418 41.5352 26.1363
1 45.2631 39.9353 23.8874
1 46.6856 42.458 23.8782
1 46.8043 44.0472 26.2267
1 45.3109 41.5569 26.2456
1 48.0734 39.9583 23.8533
1 49.5347 42.4382 23.8148
1 49.6443 44.0239 26.2946
1 48.1478 41.5267 26.2244
1 32.4491 47.2308 24.0065
1 32.3715 49.0194 26.2687
1 33.7638 44.767 23.8937
1 35.2086 47.3177 23.891
1 35.2255 48.9481 26.292
1 33.8698 46.491 26.2604
1 36.558 44.8373 23.9205
1 38.0998 47.32 23.922
1 38.0686 48.9516 26.2919
1 36.6636 46.5267 26.2446
1 39.4424 44.8038 23.9286
1 40.9099 47.3064 23.9491
1 40.9338 49.0208 26.3205
1 39.5863 46.4851 26.3488
1 42.2894 44.9074 23.9332
1 43.7722 47.3686 23.9135
1 43.8635 49.0533 26.2492
1 42.4261 46.5121 26.2802
1 45.2175 44.939 23.9277
1 46.6276 47.4003 23.8046
1 46.77 49.054 26.2641
1 45.3732 46.532 26.2318
1 48.1598 44.9807 23.9484
1 49.5769 47.4645 23.7729
1 49.6137 49.0858 26.2319
1 48.167 46.5813 26.2166
1 33.8469 49.7714 24.028
1 36.6209 49.8809 23.9066
1 39.5055 49.8499 24.005
1 42.3483 49.8128 23.9505
1 45.2293 49.8792 23.8273
1 48.061 49.8375 23.858
1 49.6551 32.4699 28.5679
1 52.3821 32.3504 28.2462
1 38.1206 37.4017 28.5382
1 40.9331 37.2457 28.5792
1 42.5112 34.839 28.4977
1 43.9559 37.3568 28.5057
1 45.3504 34.8139 28.4759
1 46.8719 37.3466 28.505
1 48.1831 34.8835 28.4162
1 49.6984 37.3969 28.4336
1 35.3392 42.273 28.5432
1 36.7731 39.8806 28.6258
1 38.1649 42.3441 28.6223
1 39.5639 39.7321 28.5304
1 41.0177 42.2855 28.5115
1 42.4436 39.8031 28.4632
1 43.8923 42.316 28.52
1 45.3551 39.8225 28.5126
1 46.7747 42.359 28.6119
1 48.3156 39.8463 28.544
1 49.7426 42.3358 28.5656
1 32.5017 47.3595 28.6422
1 33.8503 44.8534 28.5285
1 35.2135 47.3615 28.6796
1 36.7553 44.9319 28.633
1 38.1152 47.4009 28.7235
1 39.5313 44.7965 28.6152
1 40.9871 47.3049 28.6016
1 42.3996 44.8303 28.6244
1 43.9007 47.3694 28.6306
1 45.3512 44.8202 28.5209
1 46.8196 47.3881 28.5661
1 48.2503 44.8737 28.5897
1 49.6741 47.3215 28.4231
1 33.6953 49.8704 28.6539
1 36.65 49.8392 28.6859
1 39.5544 49.8357 28.6392
1 42.4706 49.8242 28.5912
1 45.274 49.9227 28.5653
1 48.1948 49.9532 28.5236
1 43.9877 34.1449 30.8667
1 46.9276 34.219 30.8099
1 49.8215 33.9495 30.8168
1 38.2615 38.9965 30.9363
1 41.003 38.9456 30.8603
1 39.5754 36.4665 30.794
1 43.8393 39.0462 30.816
1 42.449 36.4521 30.8297
1 46.8592 39.1154 30.8679
1 45.3181 36.6152 30.8317
1 49.8143 39.0281 30.8647
1 48.2939 36.6436 30.8995
1 35.3045 43.952 30.8861
1 38.1802 43.9754 31.019
1 36.7278 41.4728 30.9302
1 41.0553 43.983 30.9599
1 39.6901 41.3809 30.933
1 44.0169 43.9551 30.8968
1 42.4849 41.4587 30.836
1 46.8743 44.0017 30.9272
1 45.4071 41.5734 30.9161
1 49.7642 44.0736 30.8201
1 48.3062 41.5303 30.9643
1 32.2826 48.9917 30.9751
1 35.18 49.0985 31.0106
1 33.8503 46.4345 30.9821
1 38.101 49.0547 31.0177
1 36.6902 46.4752 31.0057
1 40.9786 49.0317 30.9342
1 39.5488 46.4831 30.9222
1 43.9254 49.0066 30.9118
1 42.3937 46.5084 30.9601
1 46.7678 48.9187 30.9176
1 45.2949 46.5422 30.947
1 49.7052 48.9857 30.8774
1 48.2415 46.52 30.8678
1 44.1029 34.0801 35.5238
1 46.8427 32.5642 33.2499
1 46.9657 34.0245 35.5524
1 49.5441 32.4892 33.0849
1 49.7939 33.9801 35.4379
1 38.1233 37.3804 33.2824
1 38.1927 38.8876 35.6531
1 40.9008 37.2322 33.1819
1 41.0412 38.9112 35.6154
1 39.5539 36.4305 35.4853
1 42.6311 34.9037 33.2686
1 43.9253 37.3715 33.1953
1 43.9878 39.0738 35.5822
1 42.5706 36.4319 35.5631
1 45.433 34.9037 33.2268
1 46.844 37.341 33.1966
1 46.8187 39.0331 35.46
1 45.4464 36.5504 35.5542
1 48.3275 34.9226 33.2481
1 49.8793 37.4241 33.2516
1 49.7432 38.9711 35.5338
1 48.3424 36.5105 35.5313
1 35.3259 42.4011 33.2423
1 35.3698 43.9991 35.5976
1 36.6452 39.9547 33.2723
1 38.1825 42.2638 33.2315
1 38.27 43.9371 35.5929
1 36.8462 41.4678 35.6106
1 39.5805 39.7982 33.2999
1 41.0347 42.3661 33.2445
1 41.0821 43.9696 35.6222
1 39.6223 41.4364 35.6524
1 42.4566 39.7684 33.2262
1 43.8895 42.2622 33.1743
1 43.9993 43.9824 35.5092
1 42.4912 41.4556 35.5269
1 45.3708 39.8472 33.1548
1 46.8402 42.34 33.322
1 46.9134 44.043 35.5449
1 45.3844 41.5101 35.6075
1 48.3911 39.7746 33.2089
1 49.758 42.354 33.262
1 49.7254 44.0394 35.4601
1 48.3183 41.465 35.53
1 32.4123 47.414 33.346
1 32.4895 49.0873 35.6042
1 33.9407 44.8387 33.2878
1 35.3035 47.3539 33.2753
1 35.3263 49.0111 35.5839
1 33.9752 46.4817 35.7022
1 36.7727 44.7834 33.3056
1 38.1605 47.3484 33.3589
1 38.2122 48.9864 35.5718
1 36.7969 46.4551 35.6866
1 39.5789 44.8753 33.2868
1 40.9917 47.3451 33.2756
1 41.0433 49.0537 35.6498
1 39.7111 46.5304 35.6776
1 42.5194 44.7916 33.2715
1 43.9032 47.3143 33.244
1 43.9476 49.0545 35.6022
1 42.5613 46.4485 35.6196
1 45.3754 44.8847 33.2167
1 46.8138 47.3112 33.2294
1 46.7725 48.9194 35.6455
1 45.4021 46.3903 35.6032
1 48.314 44.8976 33.1542
1 49.7649 47.3676 33.2639
1 49.7477 49.0159 35.6076
1 48.2542 46.4751 35.5518
1 33.8504 49.9292 33.2606
1 36.7244 49.8389 33.2465
1 39.5529 49.8574 33.255
1 42.4795 49.844 33.32
1 45.344 49.7773 33.3097
1 48.3097 49.8034 33.2765
1 43.9788 34.0305 40.2269
1 46.6907 32.4833 37.8533
1 46.868 33.9974 40.2115
1 49.5264 32.3537 37.8675
1 49.7978 33.8817 40.2145
1 38.2691 37.328 37.9141
1 38.2014 38.9313 40.3247
1 41.0841 37.2647 37.9446
1 41.116 39.0055 40.2367
1 39.6671 36.5229 40.321
1 42.567 34.8603 37.9083
1 43.872 37.3522 37.9293
1 43.9053 38.8954 40.396
1 42.5521 36.3926 40.3098
1 45.3042 34.8769 37.8654
1 46.8998 37.273 37.8759
1 46.8875 38.883 40.2338
1 45.367 36.3638 40.3055
1 48.2724 34.9088 37.8481
1 49.82 37.2573 37.8907
1 49.7755 39.0433 40.2703
1 48.3145 36.442 40.1851
1 35.3954 42.3916 37.9465
1 35.3732 44.0915 40.2085
1 36.842 39.8008 37.9099
1 38.2205 42.3146 37.8624
1 38.2048 43.9636 40.2268
1 36.7778 41.4502 40.279
1 39.6165 39.7867 37.946
1 41.0804 42.3395 37.92
1 41.0869 43.9729 40.2198
1 39.6062 41.4964 40.2405
1 42.4975 39.8572 37.8717
1 44.0115 42.285 37.9205
1 43.9858 43.9295 40.2396
1 42.4871 41.4593 40.1855
1 45.3803 39.7333 37.951
1 46.8394 42.2008 37.919
1 46.8629 43.8996 40.3625
1 45.4156 41.4021 40.311
1 48.3 39.7731 37.8732
1 49.7295 42.263 37.8503
1 49.751 43.9353 40.2645
1 48.296 41.3942 40.2736
1 32.5543 47.3526 37.9034
1 32.506 49.0261 40.3967
1 33.9199 44.7937 37.9339
1 35.3288 47.3258 38.0086
1 35.3074 49.0709 40.3189
1 33.8354 46.5405 40.2712
1 36.8508 44.8242 37.945
1 38.2982 47.4138 37.8668
1 38.1588 49.0583 40.1989
1 36.8088 46.5252 40.209
1 39.6695 44.8204 37.8902
1 41.1518 47.2817 37.9718
1 41.0459 49.0024 40.26
1 39.6227 46.5459 40.2899
1 42.5715 44.7603 37.8793
1 43.9863 47.2463 37.8719
1 43.8875 48.9577 40.3166
1 42.5243 46.4016 40.3229
1 45.4971 44.6252 37.9084
1 46.8138 47.1945 37.9225
1 46.803 48.9157 40.2469
1 45.377 46.4247 40.2113
1 48.2836 44.7577 37.9513
1 49.6678 47.2943 37.9322
1 49.711 48.9452 40.2528
1 48.2254 46.4162 40.2751
1 33.8106 49.8514 37.9532
1 36.659 49.895 37.9292
1 39.7245 49.9156 37.8889
1 42.5657 49.801 37.9834
1 45.3564 49.8015 37.9642
1 48.1464 49.7791 37.9736
1 46.8792 32.3754 42.5704
1 49.7127 32.3557 42.5405
1 38.313 37.3765 42.7093
1 41.1671 37.4086 42.6236
1 42.5053 34.8593 42.6095
1 44.0075 37.2768 42.7246
1 45.3767 34.7963 42.6635
1 46.9814 37.333 42.6135
1 48.3069 34.824 42.5767
1 49.79 37.3443 42.5452
1 35.4309 42.4224 42.6079
1 36.8853 39.7679 42.7223
1 38.1961 42.3698 42.5721
1 39.6622 39.8305 42.6526
1 41.1386 42.3602 42.6238
1 42.5621 39.821 42.6073
1 43.9932 42.3203 42.5636
1 45.4718 39.7479 42.6669
1 46.8345 42.3005 42.6236
1 48.3117 39.77 42.5461
1 49.7159 42.3367 42.5484
1 32.5414 47.4576 42.7188
1 33.93 44.8579 42.5464
1 35.3723 47.3589 42.5676
1 36.9321 44.9144 42.5179
1 38.298 47.4148 42.5881
1 39.7224 44.873 42.551
1 41.1215 47.3877 42.6079
1 42.5434 44.8513 42.6655
1 44.0008 47.3337 42.6584
1 45.3612 44.8312 42.5909
1 46.8115 47.2824 42.6355
1 48.379 44.8433 42.6602
1 49.7598 47.3294 42.5847
1 33.8287 50.0183 42.5935
1 36.7532 49.7967 42.5916
1 39.6206 49.9054 42.563
1 42.4385 49.9426 42.5799
1 45.3517 49.8725 42.6062
1 48.3276 49.8969 42.6144
1 44.0062 34.0138 44.8853
1 46.8028 33.8733 44.9295
1 49.7019 33.8586 44.8683
1 38.2409 38.9705 45.0864
1 41.121 38.9655 45.0168
1 39.729 36.4912 45.0262
1 43.9818 38.8992 44.9682
1 42.5594 36.3579 45.0337
1 46.8386 38.978 44.9661
1 45.4084 36.4068 44.9884
1 49.7577 38.9864 44.9276
1 48.3186 36.4163 44.8779
1 35.4321 44.0125 44.9887
1 38.2685 43.9661 44.8917
1 36.8223 41.4129 44.9239
1 41.1226 43.9771 45.0015
1 39.6483 41.4484 44.9276
1 43.9568 43.9683 44.9234
1 42.4804 41.4117 45.0225
1 46.8493 44.0207 44.9942
1 45.3233 41.4447 45.023
1 49.6873 44.0091 45.0095
1 48.2182 41.44 44.9464
1 32.5805 49.049 44.9985
1 35.2934 48.9496 44.9582
1 33.9777 46.4828 44.8853
1 38.1807 49.0696 44.8953
1 36.8492 46.5788 44.8982
1 41.0415 49.0739 44.9381
1 39.6418 46.463 44.962
1 43.9608 49.0792 44.8616
1 42.5562 46.5035 45.0193
1 46.8367 49.0344 44.834
1 45.3535 46.4713 44.9724
1 49.7553 48.9357 44.9456
1 48.183 46.6029 44.9896
1 43.9409 33.9295 49.5858
1 46.9247 32.3724 47.4162
1 46.7051 33.947 49.6718
1 49.7069 32.3845 47.3351
1 49.5586 33.8882 49.6534
1 38.215 37.3612 47.3643
1 38.0741 38.9799 49.7438
1 41.0382 37.3181 47.2792
1 41.0023 38.9866 49.6473
1 39.7497 36.5515 49.7119
1 42.5097 34.721 47.2185
1 43.9025 37.3123 47.3663
1 43.9006 39 49.6926
1 42.5657 36.3812 49.7261
1 45.4021 34.7031 47.2229
1 46.7621 37.3066 47.2815
1 46.7829 39.0087 49.6959
1 45.3834 36.4993 49.6747
1 48.2599 34.8467 47.2045
1 49.6952 37.3102 47.292
1 49.6958 39.0011 49.6297
1 48.2126 36.4276 49.6112
1 35.4334 42.27 47.303
1 35.3575 44.0528 49.6084
1 36.8137 39.802 47.4621
1 38.2176 42.2875 47.2863
1 38.2111 43.9274 49.6576
1 36.674 41.4748 49.6268
1 39.6272 39.7941 47.4191
1 41.0451 42.3018 47.3423
1 41.1277 44.0004 49.7869
1 39.5577 41.4432 49.6288
1 42.501 39.8228 47.3726
1 43.9309 42.3965 47.3581
1 43.9172 44.0142 49.7331
1 42.4907 41.5461 49.7987
1 45.3867 39.8326 47.3503
1 46.8964 42.405 47.2687
1 46.902 43.9259 49.638
1 45.3288 41.5492 49.7303
1 48.1861 39.7382 47.291
1 49.6552 42.3402 47.3368
1 49.7424 44.0054 49.6171
1 48.1872 41.4755 49.5768
1 32.5798 47.3574 47.3145
1 32.5401 49.0555 49.771
1 33.9715 44.8485 47.2547
1 35.3735 47.2832 47.2326
1 35.3533 48.8755 49.6083
1 33.9495 46.4661 49.61
1 36.8425 44.8615 47.2879
1 38.1561 47.3714 47.2454
1 38.2414 48.9887 49.6485
1 36.7727 46.4563 49.6725
1 39.6376 44.7762 47.3809
1 41.0639 47.3357 47.2642
1 41.0393 48.9902 49.6383
1 39.6322 46.3947 49.6064
1 42.5726 44.7586 47.3992
1 44.0071 47.4332 47.2612
1 43.9402 49.0378 49.6552
1 42.5596 46.6002 49.5838
1 45.4192 44.8008 47.3179
1 46.8576 47.323 47.3124
1 46.858 48.9882 49.6589
1 45.4311 46.504 49.6245
1 48.3254 44.8571 47.3298
1 49.7229 47.3321 47.3498
1 49.711 49.0021 49.6943
1 48.3113 46.5011 49.7069
1 33.8411 49.8055 47.2756
1 36.7482 49.884 47.274
1 39.6393 49.8915 47.2417
1 42.5337 49.7985 47.2924
1 45.3983 49.8631 47.2022
1 48.2791 49.7472 47.217
1 43.8962 33.9532 54.4172
1 46.8363 32.3695 51.9061
1 46.8059 33.9084 54.3436
1 49.6775 32.3575 51.9852
1 49.7469 33.816 54.3544
1 38.3226 37.4517 52.0376
1 38.1939 38.9251 54.3926
1 41.1301 37.3756 52.0945
1 41.1109 39.0717 54.4241
1 39.6386 36.5465 54.3818
1 42.5447 34.7854 52.0783
1 43.9117 37.298 52.0097
1 43.9709 38.9784 54.4624
1 42.4411 36.4253 54.4912
1 45.3723 34.8545 51.9951
1 46.7844 37.3223 52.0506
1 46.8299 38.9528 54.3969
1 45.2919 36.4345 54.377
1 48.1656 34.7602 51.9789
1 49.6582 37.2281 52.0375
1 49.6323 38.9459 54.3732
1 48.184 36.458 54.3493
1 35.3092 42.3498 51.998
1 35.2422 43.9977 54.2661
1 36.7508 39.8913 52.0481
1 38.1521 42.2903 51.9945
1 38.1779 44.004 54.4216
1 36.7424 41.4712 54.3403
1 39.7012 39.8971 52.0362
1 41.0666 42.3554 52.0488
1 41.0959 43.9586 54.348
1 39.6547 41.4892 54.5104
1 42.5363 39.8672 52.0826
1 43.9597 42.3043 52.034
1 43.9545 43.9791 54.3614
1 42.5295 41.506 54.3712
1 45.3998 39.8419 52.0229
1 46.8872 42.3145 52.0244
1 46.7993 43.9883 54.3363
1 45.4096 41.5152 54.3956
1 48.2223 39.7369 52.0982
1 49.6548 42.4231 51.9374
1 49.7109 44.0189 54.3613
1 48.2505 41.461 54.3462
1 32.4557 47.2706 52.0267
1 32.5392 48.971 54.2542
1 33.9393 44.8867 51.971
1 35.2066 47.3055 51.9188
1 35.3404 49.0269 54.3466
1 33.9091 46.4294 54.3589
1 36.8168 44.8144 51.9545
1 38.1924 47.3267 51.9755
1 38.1672 48.9552 54.3129
1 36.7393 46.5045 54.3574
1 39.7231 44.859 52.0553
1 41.0456 47.2772 51.9527
1 41.056 49.0912 54.319
1 39.5573 46.5402 54.3826
1 42.5242 44.8757 52.0877
1 43.9627 47.2916 51.9792
1 43.9131 49.025 54.2294
1 42.4773 46.5335 54.3381
1 45.3539 44.8193 51.962
1 46.7963 47.3399 52.0216
1 46.8207 48.9339 54.3833
1 45.3469 46.5051 54.3617
1 48.2268 44.862 52.0344
1 49.7247 47.3942 51.9744
1 49.6583 48.9386 54.3337
1 48.2588 46.5008 54.2946
1 33.9595 49.8167 51.9907
1 36.7347 49.8281 51.996
1 39.5568 49.8118 52.0552
1 42.4459 49.8545 51.9787
1 45.3165 49.8215 51.97
1 48.2585 49.8671 51.973
1 43.8929 33.9882 59.1171
1 46.7139 32.351 56.6226
1 46.738 33.8408 59.0217
1 49.516 32.3559 56.6829
1 49.579 33.9223 59.0421
1 38.1876 37.3697 56.6433
1 38.095 39.0942 59.0615
1 41.0093 37.3461 56.734
1 41.0797 38.8994 59.0258
1 39.5546 36.5018 59.0253
1 42.4335 34.8373 56.7491
1 43.926 37.2492 56.8129
1 44.0026 38.9925 59.1372
1 42.514 36.4824 59.1215
1 45.2657 34.794 56.6848
1 46.8257 37.2466 56.6844
1 46.8602 38.9468 59.0324
1 45.3497 36.3576 59.0671
1 48.2529 34.8101 56.5614
1 49.6361 37.3475 56.6923
1 49.6443 38.9676 59.0319
1 48.2133 36.4939 58.9894
1 35.1903 42.3089 56.6794
1 35.2072 43.9854 59.0462
1 36.6094 39.832 56.656
1 38.0807 42.3269 56.8028
1 38.034 43.9616 59.0209
1 36.5968 41.505 59.1226
1 39.5514 39.7988 56.6838
1 41.0396 42.3098 56.7267
1 40.9788 43.935 59.0802
1 39.6779 41.3973 59.0584
1 42.6068 39.8933 56.7653
1 44.0186 42.3765 56.7551
1 43.8799 43.9976 59.0913
1 42.5312 41.4881 59.0789
1 45.3852 39.768 56.7871
1 46.8333 42.3207 56.7045
1 46.8728 44.0354 59.0435
1 45.3974 41.589 59.076
1 48.2096 39.8318 56.6805
1 49.7314 42.3695 56.7389
1 49.7347 43.9883 59.0994
1 48.2889 41.4596 59.0628
1 32.4726 47.3736 56.7215
1 32.474 49.0237 58.9963
1 33.7787 44.8475 56.6965
1 35.2936 47.2941 56.6261
1 35.2445 48.9282 59.0233
1 33.9023 46.4619 59.0402
1 36.6524 44.8339 56.685
1 38.1518 47.4059 56.6846
1 38.1522 48.9874 58.9938
1 36.7609 46.4232 59.062
1 39.6132 44.7991 56.7316
1 41.0162 47.3608 56.6794
1 41.021 49.034 58.9553
1 39.5833 46.4969 59.036
1 42.5032 44.8813 56.6944
1 43.9026 47.2782 56.7312
1 43.9071 49.0202 58.9356
1 42.4877 46.5017 58.9649
1 45.395 44.7856 56.6888
1 46.9053 47.3573 56.6506
1 46.8002 48.9239 58.9768
1 45.4329 46.5144 58.9277
1 48.2395 44.8314 56.6572
1 49.7545 47.3837 56.6544
1 49.7474 49.0258 59.0214
1 48.3401 46.5004 58.9141
1 33.8805 49.8692 56.6844
1 36.6409 49.896 56.6558
1 39.5228 49.9725 56.6468
1 42.4781 49.8894 56.5992
1 45.3422 49.8841 56.6034
1 48.2323 49.8608 56.7174
1 43.961 34.0565 63.7836
1 46.8692 32.4819 61.4746
1 46.7416 33.9231 63.8597
1 49.6743 32.4435 61.4282
1 49.6673 33.9383 63.8072
1 38.1783 37.3809 61.3209
1 38.0255 39.0003 63.7169
1 40.9726 37.3352 61.4385
1 40.9473 39.0548 63.7712
1 39.5463 36.6332 63.8042
1 42.4259 34.8127 61.4227
1 43.9646 37.3037 61.4673
1 43.9772 39.0768 63.7628
1 42.4496 36.4406 63.7753
1 45.3736 34.8093 61.4422
1 46.8271 37.3089 61.4198
1 46.8467 38.9271 63.8086
1 45.3138 36.5011 63.764
1 48.2546 34.8908 61.3322
1 49.6043 37.2594 61.4133
1 49.6296 38.9318 63.7627
1 48.2061 36.4321 63.8171
1 35.1773 42.3493 61.3996
1 35.2593 43.9079 63.7485
1 36.7258 39.7843 61.3259
1 38.1992 42.3349 61.3621
1 38.0738 44.0318 63.6968
1 36.6923 41.4623 63.693
1 39.5712 39.8136 61.3728
1 41.0241 42.354 61.3544
1 40.8949 44.0649 63.7077
1 39.4708 41.4676 63.7442
1 42.4633 39.8106 61.3861
1 43.8797 42.2948 61.4662
1 43.8555 43.9713 63.7314
1 42.3666 41.5156 63.7208
1 45.5067 39.767 61.4337
1 46.8116 42.2828 61.3673
1 46.7669 43.9318 63.7028
1 45.369 41.4955 63.752
1 48.268 39.7747 61.4464
1 49.6417 42.3643 61.3666
1 49.7094 44.026 63.692
1 48.2034 41.4106 63.7688
1 32.5104 47.4161 61.3481
1 32.3858 49.0573 63.5784
1 33.9227 44.9006 61.4114
1 35.2937 47.379 61.3778
1 35.1852 49.0583 63.6837
1 33.8666 46.5389 63.6908
1 36.782 44.7697 61.3529
1 38.088 47.3777 61.385
1 38.0432 49.1123 63.6603
1 36.6059 46.5182 63.7494
1 39.5315 44.9046 61.2983
1 41.0109 47.4063 61.3135
1 40.9809 49.0714 63.6286
1 39.5789 46.5751 63.6416
1 42.4338 44.8911 61.4277
1 43.9969 47.3219 61.23
1 43.9234 48.9719 63.5754
1 42.4594 46.5166 63.6284
1 45.3758 44.7534 61.3521
1 46.7606 47.2407 61.252
1 46.8235 48.9508 63.6319
1 45.4452 46.5203 63.5896
1 48.2439 44.8014 61.3058
1 49.7183 47.2961 61.3625
1 49.7307 48.9832 63.6717
1 48.313 46.4816 63.6558
1 33.8596 49.9484 61.3636
1 36.6966 49.9198 61.3055
1 39.4992 49.8415 61.3242
1 42.3665 49.8397 61.2727
1 45.3598 49.8638 61.2464
1 48.3044 49.7222 61.3881
1 43.9075 34.1531 68.5211
1 49.6883 32.4491 66.0416
1 46.7937 33.9523 68.561
1 52.4161 32.3968 65.9729
1 49.6924 33.8618 68.556
1 38.0305 37.2922 66.0672
1 38.0031 39.0202 68.3464
1 40.9456 37.3345 66.1775
1 40.9012 38.9809 68.4093
1 39.4188 36.5854 68.466
1 42.2799 34.8415 66.1123
1 43.8958 37.2414 66.1648
1 43.724 38.9803 68.4947
1 42.3751 36.459 68.4759
1 45.2469 34.7736 66.157
1 46.737 37.3398 66.1652
1 46.7317 39.026 68.4225
1 45.3362 36.461 68.5032
1 48.1281 34.7555 66.2126
1 49.593 37.2475 66.1346
1 49.7063 38.9313 68.5099
1 48.2283 36.4357 68.5569
1 35.2876 42.4086 66.1696
1 35.1484 44.0221 68.4932
1 36.753 39.914 66.1035
1 38.1005 42.3375 66.1102
1 38.0226 43.9874 68.4261
1 36.5574 41.4924 68.4821
1 39.5177 39.7393 66.026
1 40.9103 42.3012 66.0355
1 40.9642 43.9892 68.2849
1 39.4905 41.4714 68.392
1 42.4636 39.8668 66.1439
1 43.8924 42.3478 66.0137
1 43.8 43.9741 68.3342
1 42.3587 41.4354 68.449
1 45.215 39.7956 66.178
1 46.7376 42.3796 66.0867
1 46.6872 44.0624 68.3509
1 45.2412 41.5522 68.3579
1 48.2141 39.8316 66.1069
1 49.6782 42.2966 66.0482
1 49.6185 44.0595 68.3649
1 48.1478 41.5508 68.3921
1 32.428 47.4913 66.0445
1 32.3333 49.186 68.3138
1 33.8478 45.029 66.1256
1 35.2426 47.414 66.0552
1 35.2104 49.0939 68.3906
1 33.6881 46.6146 68.4356
1 36.6432 44.9164 66.0582
1 38.0668 47.463 66.0354
1 38.0381 48.9633 68.3795
1 36.5722 46.5184 68.3942
1 39.5812 44.9548 66.0428
1 40.9491 47.3375 66.0052
1 40.9457 49.0057 68.3103
1 39.517 46.4687 68.4448
1 42.4483 44.8697 66.0078
1 43.795 47.3454 65.9887
1 43.9094 49.0924 68.3093
1 42.4055 46.5142 68.3396
1 45.2978 44.8889 65.9757
1 46.7457 47.305 65.9605
1 46.7534 49.0746 68.3201
1 45.244 46.5218 68.3036
1 48.1834 44.8125 65.9851
1 49.6888 47.3121 65.9243
1 49.5844 49.0069 68.3027
1 48.1804 46.5216 68.3036
1 33.7822 49.8721 65.9546
1 36.558 49.9284 66.0549
1 39.5311 49.8409 65.975
1 42.4596 49.8268 65.9076
1 45.3309 49.8522 65.931
1 48.2562 49.9144 65.9149
1 43.8222 34.091 73.2096
1 46.8513 32.458 70.9859
1 46.7463 34.058 73.2891
1 49.6789 32.372 70.9353
1 49.5956 33.9587 73.2522
1 38.2492 37.4495 70.8304
1 38.0956 39.0975 73.1353
1 41.015 37.3514 70.7333
1 41.0898 39.0928 73.1261
1 39.6317 36.72 73.1799
1 42.4812 34.9017 70.8041
1 43.9747 37.3443 70.8398
1 43.8209 39.0899 73.1481
1 42.4988 36.4966 73.1402
1 45.3807 34.8432 70.8927
1 46.8262 37.3275 70.7964
1 46.7272 39.0098 73.1502
1 45.2973 36.5526 73.297
1 48.3343 34.8631 70.9454
1 49.6656 37.3332 70.7715
1 49.5385 39.03 73.2034
1 48.215 36.5577 73.2902
1 35.2048 42.3012 70.7887
1 35.0805 44.0674 73.2157
1 36.6691 39.8933 70.7962
1 38.0133 42.3896 70.7861
1 38.1344 44.016 73.1562
1 36.6343 41.6193 73.1466
1 39.5358 39.8805 70.6824
1 40.9837 42.3474 70.7518
1 41.0114 44.0399 73.0657
1 39.5912 41.5615 73.0697
1 42.4259 39.7688 70.8131
1 43.7888 42.3192 70.7156
1 43.8592 44.1255 73.043
1 42.4705 41.5607 73.221
1 45.3224 39.8807 70.8198
1 46.6613 42.3826 70.7019
1 46.6833 44.0436 73.0715
1 45.2717 41.6756 73.093
1 48.1815 39.8654 70.695
1 49.62 42.3138 70.7831
1 49.5539 43.9838 73.0136
1 48.0605 41.4405 73.0717
1 32.3315 47.5559 70.7675
1 32.3166 49.208 73.0717
1 33.7903 44.9889 70.7767
1 35.2122 47.3729 70.7244
1 35.239 49.1099 73.0709
1 33.7466 46.7543 73.04
1 36.6042 44.7878 70.822
1 38.0864 47.3365 70.7124
1 38.0827 49.0076 73.0265
1 36.6293 46.517 73.0921
1 39.5539 44.8175 70.6989
1 40.9767 47.3487 70.6754
1 40.9124 49.0502 72.9494
1 39.5499 46.5361 72.9899
1 42.4279 44.8434 70.6727
1 43.8187 47.4396 70.5561
1 43.8843 49.1164 72.9689
1 42.4627 46.5696 73.0591
1 45.2698 44.8703 70.6093
1 46.7649 47.3581 70.5934
1 46.7528 49.074 72.9226
1 45.2863 46.577 72.9553
1 48.1161 44.8293 70.6236
1 49.572 47.397 70.6889
1 49.65 49.0117 73.0314
1 48.1807 46.4741 73.0394
1 33.8021 49.9322 70.7024
1 36.6766 49.889 70.6944
1 39.4956 49.9065 70.646
1 42.3577 49.8753 70.6098
1 45.3443 49.8764 70.6471
1 48.2367 49.9393 70.7082
1 43.9044 34.1692 77.959
1 46.9327 32.4887 75.6542
1 46.7331 34.0655 77.9104
1 49.6727 32.4375 75.6806
1 49.6247 33.9963 77.9377
1 38.0933 37.4749 75.5083
1 38.0281 39.1906 77.8361
1 40.9318 37.5023 75.5375
1 40.8856 39.1307 77.8894
1 39.4999 36.6738 77.8548
1 42.4051 35.0093 75.6476
1 43.8344 37.4351 75.5484
1 43.844 39.0956 77.8818
1 42.4272 36.6137 77.9139
1 45.2394 34.8431 75.5622
1 46.7833 37.4323 75.5743
1 46.8024 39.1096 77.8342
1 45.3232 36.6498 77.8641
1 48.2246 34.9321 75.6352
1 49.6886 37.3899 75.5578
1 49.6959 39.0829 77.9238
1 48.243 36.5602 77.9002
1 35.1914 42.4501 75.4385
1 35.0973 44.0869 77.7977
1 36.6045 40.0815 75.4369
1 38.1111 42.5013 75.4901
1 38.0894 44.0942 77.773
1 36.5888 41.6832 77.8087
1 39.5192 39.9714 75.4645