ITEM: TIMESTEP
0
ITEM: NUMBER OF ATOMS
5538
ITEM: BOX BOUNDS pp pp pp
0.259222 99.7408
0.0641917 99.9358
-7.80626 107.806
ITEM: ATOMS id type x y z c_csym c_2[1] c_2[2] c_2[3] c_2[4] c_2[5] c_2[6] 
2 1 47.0108 32.2941 5.27802 98.496 275689 77993.3 -88509.7 -58138.2 -11029.9 113821 
15 1 45.4466 34.6363 5.19511 36.1196 502565 523993 -91705.9 -125972 -247722 32929.1 
19 1 48.2998 34.7125 5.10554 30.7582 478039 108996 -21547.3 -99947.6 -238797 -63610.6 
8 1 40.9709 37.3346 5.15295 41.5528 509815 43688.9 -317609 -76315.2 -190229 -219446 
12 1 43.8526 37.1253 5.01237 31.3359 928056 1.02695e+06 213927 -139429 9226.92 -60131.9 
16 1 46.7423 37.1899 5.0098 23.2495 722545 588430 -113126 -46723.7 -34984.4 -80973.1 
20 1 49.6826 37.1838 4.98382 23.5173 696037 768696 -127590 -173982 -105239 47849.8 
29 1 39.5851 39.832 4.98008 39.1623 397456 361424 319110 -61861.8 9176.68 -29833.4 
33 1 42.4476 39.7047 5.02099 22.0224 277917 325988 -246022 -207390 -193170 -13382.9 
37 1 45.3136 39.7226 4.90591 24.1049 426026 679966 17493.7 65121.4 -101721 -135903 
41 1 48.1844 39.716 4.88028 24.4863 624477 563824 3863.79 -17759.3 -29503.3 -57055.9 
26 1 38.176 42.2668 4.99973 36.9149 435428 735082 150828 -112405 -42366.1 -100812 
30 1 41.0144 42.2816 4.93959 23.5833 49640.8 547360 7987.78 -100509 -72616.6 -102187 
34 1 43.8036 42.2276 4.89516 22.9115 218617 605571 -188494 -83891.8 12037.9 5791.83 
38 1 46.7443 42.1997 4.80975 24.6179 598462 605442 31273.2 22328.7 -121274 51098.1 
42 1 49.6307 42.2154 4.80609 24.0646 621946 674875 -65525 -13511.5 103889 72522 
51 1 36.6836 44.8838 4.94683 36.2412 427568 393819 -155908 -253272 -2517.82 -300852 
55 1 39.5259 44.8147 4.87963 23.9214 606696 775374 36651.2 -27856.9 -25147.3 -159584 
59 1 42.4237 44.823 4.88885 22.5206 639742 597452 -184659 -140782 1100.44 -100678 
63 1 45.3287 44.7671 4.81426 24.369 628114 778612 -3618.53 77256.5 -83812.4 -51440.2 
67 1 48.2074 44.7527 4.82879 22.9032 613382 776483 -89377.1 100299 -15722.2 43140.8 
71 1 33.6376 49.9145 5.01005 37.7444 1.32803e+06 1.01776e+06 93993.7 -372055 -259914 -315501 
48 1 35.1367 47.2392 4.93911 39.2393 792686 976060 279583 -201398 45155.8 -26328 
52 1 38.0453 47.3498 4.80957 24.1139 763049 341902 311420 -56470.4 -31702.7 -42225.1 
72 1 36.5637 49.7691 4.88044 21.3974 1.07357e+06 902918 151972 192978 -109054 -31082.2 
56 1 40.9591 47.3873 4.82562 23.4069 798531 590652 113559 -11790.9 118327 -13340.6 
73 1 39.5118 49.8325 4.91229 21.5163 935495 630541 64978.6 103368 -72256.5 -22024.6 
60 1 43.9051 47.2915 4.81933 24.2496 648044 568544 -96212.8 -7129.98 -100417 98945.2 
74 1 42.4711 49.8305 4.86779 22.6391 867135 561035 -74255 -66982.5 -83865.1 -151458 
64 1 46.8155 47.2853 4.78821 24.0123 526208 495184 17497.8 54293.2 38818.7 123727 
75 1 45.4014 49.7861 4.83599 22.4536 466507 623406 -156905 14291.6 -65724.9 8158.79 
68 1 49.7152 47.2868 4.76359 24.8105 707502 774559 95367.2 108441 -64239.6 29482.8 
76 1 48.2583 49.7806 4.82148 23.0017 476138 573470 -74618.4 9993.42 -90091.5 70800 
4 1 48.2595 31.5245 7.55566 48.646 222836 95538.9 -303955 127035 15094.8 2402.62 
11 1 40.9491 34.0786 7.55711 93.2459 388032 226430 60558 -239230 -36770.6 4470.14 
1 1 43.8171 33.9155 7.46084 27.9657 1.10279e+06 589310 462084 -8567.48 -84252.2 -59155.2 
3 1 46.7568 33.9076 7.51275 9.62231 117046 -104561 -798203 196678 -214528 -75575.3 
5 1 49.6874 33.9743 7.4047 6.71499 48984.5 -6898.58 -208324 161495 -140882 -83755.3 
6 1 36.5556 36.7473 7.56547 90.0909 243911 75920.8 -83732.3 -166758 -107129 189261 
10 1 39.4201 36.4265 7.36944 25.4741 897217 574107 328093 -164913 -34358.6 -27447.1 
14 1 42.3663 36.3943 7.34795 7.81993 188692 -109233 -138361 -269062 -108515 32630.7 
18 1 45.3216 36.4277 7.37849 7.51274 114395 95931.4 -153147 49482.9 -114213 -186646 
22 1 48.2164 36.4596 7.33438 7.31164 -104355 39624.7 -390011 133212 -43610.4 -163444 
25 1 35.243 39.1274 7.34684 39.7152 21841.2 49475.8 -16408.2 -305078 -39988.7 47082 
7 1 38.0748 39.0059 7.28804 8.14105 -191546 3704.24 459727 -254064 -108818 -126784 
9 1 40.9167 38.9184 7.37319 7.49613 -188219 666.476 -560881 166160 -26779.7 -539046 
13 1 43.826 38.8699 7.28676 8.25586 119367 13347.4 -19394.3 182910 -183828 58251.3 
17 1 46.7451 38.9249 7.24037 8.05252 31908.6 -64661.2 -103485 146547 -23530.1 -157561 
21 1 49.6395 38.9766 7.22814 7.68525 145817 168360 -80029.7 16443.6 -95672.2 -139437 
47 1 32.4497 43.9623 7.381 37.8931 -43100.2 76941.8 42472.9 -163729 34179.2 7225.93 
23 1 33.7757 41.5263 7.47003 39.9145 469568 453177 27537.1 -232358 -16483.5 33157.9 
24 1 35.2426 43.914 7.2357 8.56062 -60688.3 146827 574778 -52263.5 -17871.4 -65201.4 
28 1 36.6811 41.4666 7.31572 8.3668 134095 -393613 257801 -143069 -62226.8 -60876.9 
27 1 38.1211 43.9511 7.26527 7.99094 -167283 -178137 70215.3 107216 -98507.4 -254083 
32 1 39.5663 41.4518 7.34949 8.04373 -105340 -121686 -9855.07 -6082.48 -153191 -68351.4 
31 1 41.0073 43.9619 7.21468 8.23524 -49762.6 135051 -84553.7 -77646.3 52010.6 -200082 
36 1 42.4661 41.4274 7.26195 7.94779 -262757 83180.7 -281139 -48190.4 28027.9 -158830 
35 1 43.889 43.9176 7.17251 8.0194 -53085.6 81280.7 -76999.3 59114.6 4662.69 -125567 
39 1 46.7631 43.9326 7.12445 8.208 85316.3 219663 51360.1 157440 30226.8 93552.2 
40 1 45.2956 41.3954 7.17519 8.05987 -103371 42178.1 -41698.2 218150 46548.7 -129681 
43 1 49.6829 43.9616 7.11653 8.02674 141051 83726.6 22662.8 -34730.5 -146066 55759.2 
44 1 48.2162 41.4818 7.1134 7.71479 106287 44947.4 -75415.9 110008 10704.3 -77468.6 
45 1 31.0412 46.3001 7.5142 96.7104 -2239.04 262266 -95858.2 -11284.4 -2237.34 -193697 
50 1 33.7864 46.4049 7.28643 8.38258 -225518 -106303 -71673.3 -346924 -57351.1 -1949.3 
54 1 36.6956 46.3888 7.2293 7.38463 -470.27 -432770 -129156 23131.4 -70307.9 -406908 
58 1 39.5723 46.4871 7.13509 8.23923 114105 102544 201387 -96931.9 55078.8 -155647 
62 1 42.4697 46.463 7.15558 8.15809 145116 169647 -11485.5 -108386 68193.4 -192694 
66 1 45.3556 46.4875 7.07952 8.24998 11909.5 184508 -14267.1 79621.8 -84284.4 22566.3 
70 1 48.2471 46.4826 7.11828 8.13947 37914 50914.8 1406.81 -33069 -99111.8 -60302 
46 1 32.2595 48.8605 7.25235 18.8235 665756 942464 367834 216191 -53306.2 23639.5 
49 1 35.2004 48.8739 7.26948 7.69665 28623.2 -156330 -106073 -9367.38 -65310.6 -97013.8 
53 1 38.0251 48.942 7.21334 7.94436 -42711.6 52408.3 -8499.11 297922 84036.5 -41891.4 
57 1 40.973 48.9843 7.20573 8.17265 408302 168723 -139308 -74709.3 -125729 -50827.5 
61 1 43.9383 48.9828 7.15695 8.07757 77026.7 174649 -70713.2 9140.56 -130023 16642.7 
65 1 46.7926 48.9945 7.15425 8.1373 -363399 8554.91 -301671 77598.9 -26451.3 196138 
69 1 49.6529 48.9543 7.12094 7.70732 48896.8 -59704.6 28459.5 54775.9 -202890 43639.3 
78 1 46.8733 32.3003 9.78168 29.0093 522814 51490.3 -213759 -38048.9 121785 -19267.3 
80 1 49.753 32.332 9.80271 18.1603 629583 -81391.3 15131.2 40264.7 43510.7 -195463 
87 1 42.4187 34.7425 9.76671 16.2084 269796 -111804 164838 -59746.1 -50862.6 -181501 
91 1 45.3038 34.7446 9.77067 10.8828 455894 -13899.2 -119933 -41137.3 216274 -328341 
95 1 48.2719 34.7732 9.73762 8.22098 115288 -338566 -265071 -71189.1 -59049.5 -51787.3 
82 1 38.087 37.3144 9.73671 16.3823 121091 13485.3 390798 -176382 28769.1 -289917 
84 1 40.9339 37.1604 9.70266 9.35023 569.224 280182 25738.7 41673.5 173342 128908 
88 1 43.8134 37.2166 9.70964 7.79693 169181 -63918 -11630.9 52076.8 84757.8 -125919 
92 1 46.7763 37.2283 9.66903 7.93051 132367 36099.7 -199596 40459.5 -93722.3 -230121 
96 1 49.6765 37.233 9.61827 7.62724 -139625 -178152 -120155 -185388 -72659.5 -223842 
101 1 36.6086 39.7522 9.665 12.6771 363553 454141 548759 -6617.77 107273 52816.1 
105 1 39.5191 39.7337 9.67831 7.66616 107402 -46418.4 -230218 -38724.1 167835 -142601 
89 1 43.9115 38.9118 11.981 8.04893 -169937 -6426.37 -305501 89550.4 -29569.3 -206335 
109 1 42.4184 39.6987 9.65552 7.83177 30679.6 107584 -215768 188414 -71697.9 -122468 
93 1 46.7882 38.9215 11.9613 8.13645 -83831 -62166.7 -303331 246007 -1419.67 -129427 
113 1 45.3331 39.7457 9.60362 8.2439 23668.5 209081 50269.1 177048 33925.9 -43390.6 
97 1 49.6943 38.9787 11.8907 7.93258 -33503.3 -26351.7 -133474 -8758.25 58845.9 -26067.6 
117 1 48.1931 39.7602 9.5796 7.96012 -141305 303795 57679.8 290.526 -24704.9 -119275 
100 1 35.3185 43.9481 11.9927 13.133 -117996 98704.2 81272.7 -239091 -45186.1 81666.3 
99 1 35.2573 42.2507 9.68286 12.8427 123472 375491 333954 -5573 53033.5 -139032 
102 1 38.1129 42.2358 9.70131 7.86798 133698 233417 -11886.5 157248 97683.3 -64766.3 
108 1 39.6463 41.3915 11.9954 7.8325 -16696.8 -16319.7 -246070 -62854.4 -28018.4 1400.79 
106 1 41.067 42.246 9.64472 8.1603 103958 176358 -249908 29787.5 -49214.8 -220239 
107 1 41.0624 43.9261 11.9067 7.81132 -67445.5 28136 -94680.5 -128719 -22870 -129616 
112 1 42.5191 41.398 11.9605 7.65958 -222516 -82871.1 -240933 122421 -88368.9 40656 
111 1 43.8972 43.9575 11.901 7.91829 -179293 119317 -36310.9 91326.4 -92918 -68722.4 
110 1 43.9355 42.2356 9.5551 7.85875 -170155 248333 -47967.8 150732 -73168 -80112.1 
116 1 45.3693 41.4329 11.9378 8.07145 -168521 169523 -81445.5 28013.2 -139077 -86829.1 
115 1 46.7981 44.0062 11.8849 8.1323 8578.33 -18919 -222032 49878.3 43416.4 13161 
114 1 46.7942 42.2944 9.5261 8.22204 -54448.3 253118 335521 43912.7 -21469.3 43108.2 
118 1 49.6556 42.2886 9.49498 7.80847 -62581.4 262549 140453 -43949.3 -43685.1 34739.3 
120 1 48.2408 41.4789 11.9 8.12099 -215252 168710 -125948 83159.9 66892.3 -64872.6 
119 1 49.7137 43.9894 11.8551 7.826 -68049.6 -148889 -10439.9 43679.2 45260.6 -107997 
126 1 33.831 46.4198 11.9812 12.8388 47373.7 309457 145384 -218165 231.172 -35520.5 
123 1 33.8543 44.7855 9.64421 12.7215 244992 196114 181252 -240300 39467.7 39257.4 
130 1 36.6883 46.4583 11.9461 7.98625 -12778.7 -132296 -231582 -23082.5 20888.3 135389 
127 1 36.722 44.7664 9.64015 7.94639 -28790.7 52448.2 21015.8 77938.5 186304 10220.9 
134 1 39.5912 46.4894 11.8866 8.08254 -99491.5 72078 -313803 -76454.9 -143272 63330.8 
131 1 39.5961 44.7948 9.56803 8.35659 17143.6 251952 153599 17978.1 -69680.7 -210208 
138 1 42.4628 46.4319 11.8669 7.83402 22049.2 -76181.4 -27715.9 -5833.09 16529.6 22838.3 
135 1 42.4819 44.768 9.51778 7.99027 -179981 136607 -165341 -53605 -37060 -82818.1 
142 1 45.3741 46.4877 11.8347 8.09385 -61642.9 63163.3 -151911 98134.4 -61243.2 -18066.7 
139 1 45.3375 44.8145 9.50458 8.06199 -71030.3 248483 221489 87653.1 -45848.1 -140022 
146 1 48.2341 46.494 11.8397 7.91146 -37279.9 -143467 -189655 -40001.7 126955 -12579.4 
143 1 48.2046 44.8175 9.50083 8.01619 49561 47986.8 164840 -116602 26188.3 20159.2 
122 1 32.3612 48.9328 11.9451 27.6431 334122 736949 481182 -68840 -39903.5 -106960 
121 1 32.3983 47.2981 9.64007 15.9663 -85302 115348 25239.8 -89390.6 -108829 -57505.7 
147 1 33.7174 49.796 9.55388 10.2989 240479 228767 265321 28840.5 149299 -123426 
125 1 35.2222 48.9442 11.9202 8.12782 239068 370203 78671.5 13382.7 49533.3 -109207 
124 1 35.2344 47.2483 9.58232 8.12965 -111179 -45947.6 -246771 -163474 -108272 92494.6 
129 1 38.116 48.9827 11.87 8.21927 -55733.7 -15687.6 -122599 -78355.2 114030 -40114.5 
128 1 38.1337 47.2845 9.58975 8.00198 -17219 -23294.8 -110917 -62572.9 -132703 25426.2 
148 1 36.629 49.8066 9.52785 7.65016 143127 381835 -284804 -66427.8 -11377.1 -119458 
133 1 40.994 48.9809 11.8639 8.02979 -221058 -233504 -228546 53263.2 28798.1 108100 
149 1 39.5178 49.8117 9.53737 7.92585 -10385.4 163558 -203393 -65100.5 93239.6 -123235 
132 1 41.0093 47.2864 9.5318 8.0929 -44759 51640.3 -82358 -125488 41213.8 96077.8 
137 1 43.8616 48.9789 11.8528 7.8466 219160 136450 -32212.3 99851 11615.6 -44346.8 
136 1 43.8986 47.3043 9.51749 8.12459 106363 166161 39849 26061.8 -113410 26421.7 
150 1 42.4091 49.8238 9.51084 8.07779 141777 139687 -20596.6 -52111.9 -102407 -32800.9 
141 1 46.8283 49.0213 11.8194 8.25507 97270.2 4624.66 -93483 5318.44 85501.5 -19245.7 
140 1 46.7977 47.3548 9.46938 7.96058 185426 43065.1 -56745.7 49695.3 56718.6 112438 
151 1 45.3387 49.8564 9.46345 7.92221 200532 44130.1 -86023.4 32102.9 -79235.7 -168078 
145 1 49.6994 48.9664 11.7936 7.94275 -156957 23511.7 -34432.6 -33164.5 73775.2 94485.4 
144 1 49.6977 47.2716 9.46318 7.89385 175281 16169.9 -28762.6 -90257.3 -59380.3 -8704.63 
152 1 48.2552 49.8599 9.49392 7.84403 70776.5 112697 -294530 -58851.6 -335.452 39983.6 
154 1 46.9913 32.372 14.4518 39.5626 247228 -83244.6 121731 -159706 32010.1 -48884 
77 1 43.8552 33.9334 12.1112 28.6008 605320 172306 352977 -92653.1 48831.4 -27765.6 
163 1 42.485 34.7587 14.4036 27.3357 513054 222578 407439 -146632 183255 -61245.4 
79 1 46.8773 33.8688 12.0935 11.6791 734571 318894 54767.6 -162073 -1171.95 -83665.1 
167 1 45.345 34.7411 14.4069 10.1466 236511 13969.9 -73445.9 -36534.2 33702.8 173997 
81 1 49.7656 33.9852 12.066 12.4446 74886 88537.1 -92921.9 -97536.9 -142458 -33353.9 
171 1 48.2444 34.839 14.4082 7.63346 -146400 -841798 -496536 -147604 -73936.7 -12542.8 
156 1 49.7401 32.3981 14.3409 29.1678 179481 40180 164370 -13905.1 13747 130726 
158 1 38.2307 37.3422 14.432 28.891 201426 220534 415397 -92011.1 -87890.3 143806 
86 1 39.6368 36.4118 12.0661 26.0025 108128 359049 595054 -385337 116847 80513.7 
160 1 41.0519 37.2954 14.4082 10.3621 -122099 -74366.2 -248323 57723.7 80647.2 104060 
90 1 42.4433 36.3863 12.0847 10.4921 -320155 -150096 -332556 27350.8 46225.9 -89380 
164 1 43.9198 37.2236 14.3682 8.11283 -304739 68802.3 -345596 18251.9 82035.4 -79307.4 
94 1 45.3425 36.3499 12.0617 7.81346 133549 80581.2 -383824 -63609.6 36204.4 -223486 
168 1 46.7979 37.2789 14.3473 8.11068 -388681 -197804 -372914 242076 -13218.6 -85601.5 
98 1 48.2373 36.4882 12.0433 7.75824 -25918.8 32480.2 -420868 143737 -20249.2 -136499 
172 1 49.6624 37.3236 14.338 8.12403 -371442 -198115 -105651 3265.08 -24864 -137665 
83 1 38.1815 38.9121 12.1003 12.4439 98722.2 316031 307081 -319072 41578.8 -8104.66 
177 1 36.792 39.8526 14.4793 20.4623 270294 253940 270094 -75252.7 -121668 50600.2 
85 1 41.0329 38.8664 12.0193 7.86114 -190883 -253141 -197767 78906 103252 9450.98 
181 1 39.6781 39.791 14.366 7.89594 -167308 -221875 -309151 83285.9 -30307.8 -11209.1 
185 1 42.5427 39.7994 14.318 7.8629 -369339 25270.8 -240286 34890.5 74707.6 46249.6 
189 1 45.3709 39.7668 14.2946 8.08832 -431162 130454 -278810 118189 -22600 34155.9 
193 1 48.236 39.8085 14.2566 8.18493 -217920 -53287.2 -16925 17582 -73592.6 -20571.1 
104 1 36.7553 41.4334 12.0564 13.0543 41976.5 278544 102560 -194781 233720 -32251.8 
103 1 38.1585 43.9365 12.0198 7.81738 -28735.5 144554 -173540 15266.7 -33220.4 -164856 
175 1 35.4678 42.3836 14.3603 17.9401 -258447 1525.81 -78414.6 -48800.4 105833 -89571.9 
178 1 38.2421 42.301 14.3651 7.8979 -552228 144833 -252545 1957.18 -100134 87566.4 
182 1 41.1052 42.3158 14.3053 7.94781 -287951 19146.2 -87606.9 -78309.7 25405.2 -52147.6 
186 1 43.9504 42.3183 14.2972 7.89487 -359094 -169191 -201833 -104838 -5162.93 -22189.5 
190 1 46.8144 42.327 14.2108 8.25784 -348920 34938 -211096 108042 -45989.6 -104014 
194 1 49.6538 42.3251 14.2671 7.93595 -452925 -202293 -144735 15940.6 4353.79 -51415 
199 1 33.872 44.8323 14.35 21.3719 394136 299028 342959 -193146 -41736.7 57396.3 
203 1 36.7741 44.8842 14.2856 7.5586 -46847.1 -336126 -333893 -118851 41762.6 47410.3 
207 1 39.654 44.8829 14.2763 7.63481 -205297 -6052.91 -83610.5 -81035.3 -70441.8 -1216.79 
211 1 42.5019 44.8265 14.2605 7.88858 -446594 -59936 -263185 -43449.3 43297.6 40407.2 
215 1 45.3462 44.8138 14.1938 8.01909 -258186 -195776 -355351 27710.1 -30419.8 -105946 
219 1 48.2729 44.8405 14.1747 8.05552 -173900 -74737.9 -89362.8 117621 -58319.4 72721.7 
197 1 32.4519 47.3253 14.3162 28.3368 9822.07 262252 494888 -17809.9 15562.9 -40752 
200 1 35.2577 47.3154 14.3271 8.1791 -211369 -207149 -237957 -39302.3 25844.3 -69129.8 
223 1 33.7937 49.8225 14.2361 10.8035 -115411 -21172.1 -6643.15 39658.8 2049 -240590 
204 1 38.177 47.3659 14.2914 7.73374 -101964 -246579 23621.4 -85351.8 -49974.1 -1391.23 
224 1 36.6693 49.8359 14.2332 8.12538 1609.38 -99465 -190283 43525.5 -18418.9 -78969 
208 1 41.0347 47.3602 14.2058 7.87609 -109068 -311346 -159274 -108859 -100931 -12929.5 
225 1 39.5962 49.8452 14.2365 8.00492 38590.3 -400978 -213380 -16896 -48798.3 -55325 
212 1 43.9549 47.3297 14.2028 7.7443 -11058 -113226 -161598 73247.8 -58476.7 70850.5 
226 1 42.4954 49.8361 14.199 7.98288 -63659.7 -147882 -156756 -6527.48 47043.3 49376.2 
216 1 46.8398 47.3227 14.167 7.84074 -164296 106532 -79232.9 140979 115964 -12929.7 
227 1 45.3942 49.8305 14.1858 7.73502 -47260.1 -88602.1 -264145 21541.4 -26678.6 -9439.26 
220 1 49.7073 47.3705 14.1976 7.81411 10751.6 -68371.1 85050.7 -22954.9 -77360.4 1393.42 
228 1 48.2819 49.868 14.162 7.64695 -32629.3 -126370 -149204 104045 -120557 6788.92 
153 1 44.0256 34.0308 16.7932 24.8867 118703 -22142 376491 -353947 154992 -80497.2 
155 1 46.8689 33.9397 16.7287 11.4334 -67145.2 204829 -70536.2 -213623 72088.5 -42456.3 
157 1 49.6976 33.9824 16.7028 11.4819 241243 227624 161582 -45572.1 17076.2 182008 
162 1 39.669 36.5799 16.7704 26.1701 137342 193032 353550 -145780 41259.5 6440.74 
166 1 42.5192 36.4463 16.7055 10.2306 -239898 80693 -182177 -133223 22042.1 103050 
170 1 45.3699 36.4724 16.7459 8.12528 -368650 -365015 -266618 -91436.2 -21866 68669.8 
174 1 48.2361 36.5092 16.6936 7.85351 -173183 -14907.3 -532547 45667.1 -46446.7 -38750.8 
159 1 38.2454 39.0242 16.7495 13.2061 -26877.1 104404 48673.9 -125102 -72736.9 80520.1 
161 1 41.1258 39.0314 16.7254 7.98537 -306972 -202129 -257950 -135069 -77480.8 29847 
165 1 43.9687 38.9566 16.6784 7.56434 -536036 -219369 -197131 81233 -31676.4 110052 
169 1 46.7876 39.0022 16.6482 7.95119 -319200 -199862 -138410 106307 -47615.8 88721.8 
173 1 49.6834 39.0442 16.6554 8.08314 -107829 -115039 -83914.9 -30570.9 31346.6 38699 
176 1 35.3425 44.0165 16.6798 13.4169 21073.7 244146 326025 -108816 -23862.8 -199206 
180 1 36.8218 41.5698 16.7717 12.8974 -133986 70477 7389.8 -195674 -14760.7 17410.3 
179 1 38.2081 44.0603 16.6451 8.11046 -110481 -168259 54828 -140526 87878.6 -464.302 
184 1 39.6744 41.5157 16.682 8.03847 -152391 -84599.2 -155079 -38993.8 -127810 113670 
183 1 41.0903 44.0157 16.6202 7.71597 -222689 1581.93 -156793 -170377 13391.2 31453.8 
188 1 42.5598 41.4815 16.6738 7.54095 -480662 -251643 -286100 -217379 -47292.9 -11064.1 
187 1 43.9311 44.0161 16.6016 7.69297 -384849 -171255 -447483 -706.988 27960.6 76007.2 
192 1 45.3737 41.4945 16.6393 7.87646 -448382 -91430.9 -91916.8 122913 -41366.3 84621 
191 1 46.7897 44.0272 16.5472 7.89814 -168033 62847.7 195146 137767 -10179.3 -8186.41 
196 1 48.2374 41.507 16.6069 7.85506 -218205 -125022 -45443.8 -3250.56 92646.7 39625.2 
195 1 49.6534 44.0085 16.5807 7.80556 126512 76809 68670.6 72247.8 14288.3 -39693.8 
202 1 33.8694 46.5209 16.6789 13.1082 -117097 61890.5 32109 -184059 51769.7 66344 
206 1 36.7368 46.5501 16.6724 7.96145 -342150 -235710 -116164 -10959.8 -33947.6 74977 
210 1 39.5862 46.536 16.6327 7.5033 -213698 -97738.6 -18593.4 -140821 -90104.8 20231.3 
214 1 42.4681 46.5433 16.5729 7.74711 23120.2 -238132 20658.6 14931.9 11752.5 64729.7 
218 1 45.3816 46.5114 16.5126 7.82622 -18835.5 -168052 -58375.2 80612 -24698.4 91702 
222 1 48.2551 46.552 16.5873 8.12813 -184212 -114868 112384 -132153 -9582.05 57317.3 
198 1 32.4518 48.9622 16.6482 25.505 -20787.6 382450 598047 -47603.4 -77493.7 -119929 
201 1 35.2654 49.0174 16.5907 8.01296 -455481 -43864.7 -22734.9 -37528.9 15731.3 -105410 
205 1 38.0897 49.0416 16.6158 7.57389 -245453 -364471 -64875.1 -42321.7 61916 -98063.1 
209 1 41.0462 49.0119 16.5594 8.16849 19250 -214713 31265 101003 -23958.4 26435.1 
213 1 43.9134 49.0142 16.5408 7.70776 -382892 -336734 -163645 -89770.9 -35420 48719.7 
217 1 46.7673 49.0435 16.5399 7.46894 -464279 -316371 -109421 108900 -86690.1 140769 
221 1 49.6175 49.0088 16.5447 7.28184 -233396 -439445 -140039 70886.8 54432.1 39932.8 
239 1 42.5979 34.8936 19.0932 25.9448 256934 130071 407853 -134393 41240.8 -67884.3 
229 1 44.0013 34.0215 21.4383 27.2078 416633 588528 328846 -177806 52526.4 -79957.6 
243 1 45.4054 34.8879 19.1015 10.2308 -209368 -304243 -401582 44277.3 -236604 21974 
230 1 46.8557 32.4685 19.1243 37.7021 305101 -21840.4 188454 11572 20325.2 -108024 
231 1 46.8777 34.0607 21.3867 12.7681 -78831.7 -141287 -550296 -101578 -2716.9 66675.7 
232 1 49.5994 32.4 19.0073 31.3445 494525 266946 275618 83970 42476.4 94592.9 
247 1 48.2779 34.9175 19.066 7.42265 -103996 -386352 -264728 -100127 48481.7 126271 
233 1 49.7371 33.9761 21.3799 10.8026 289895 482263 440972 -18467.5 3413.5 80318.9 
234 1 38.2892 37.4465 19.1116 27.9448 197061 99264.9 141731 12494.3 -31278.8 -29281.2 
236 1 41.1346 37.4055 19.0741 10.2611 -266416 -133931 -228592 -103617 -114009 152943 
238 1 39.7108 36.5967 21.4009 26.6095 79167.6 238928 268857 -143899 -6100.08 7100.48 
240 1 43.9554 37.3883 19.0469 7.7183 -548446 -226817 -396605 29551.9 152788 141897 
242 1 42.5506 36.5715 21.3753 10.4501 -221598 125062 -518858 -204260 -88644.5 101754 
244 1 46.8236 37.4272 19.0308 7.62689 -359867 -202558 -273508 -61475.3 66522.2 -15794.2 
246 1 45.4302 36.558 21.3766 7.92762 -274986 -58994.2 -472131 89766 -46732.1 -183898 
248 1 49.6679 37.4098 19.0137 7.88981 -234174 -190100 20930.2 -57577.9 84259.3 -31250.2 
250 1 48.2776 36.5636 21.4175 8.06243 -231725 88911.8 -161747 -112539 54243.1 -151.778 
253 1 36.865 39.937 19.1007 20.2404 93606.2 136271 111403 10893.3 -14776.7 50997.5 
235 1 38.2489 39.0345 21.4299 12.7824 10814.7 236514 67782.4 -89705.4 -74361.9 -213009 
257 1 39.7089 39.9253 19.0733 7.71037 -317371 -68503.4 -117285 -39032.6 -27719.8 -38989.7 
237 1 41.1165 39.0827 21.4384 8.12587 -102836 -124549 -347284 60819.4 47932 78570.6 
261 1 42.5422 39.8898 19.0528 7.9886 -542467 -202349 -148118 -15440 -76152 2128.1 
241 1 44.0144 39.0679 21.4135 7.90048 -222414 103991 -133634 30173.8 29306.7 -8294.72 
265 1 45.3747 39.9173 19.0101 7.55545 -221170 -62379.5 -48504 1471.3 5670.51 111187 
245 1 46.8411 39.0797 21.3769 8.04821 -383775 -34915.4 -33092.1 -125438 85372.3 -44593.8 
269 1 48.2693 39.8942 19.0194 8.05421 -192042 -293195 5226.18 13274.9 75481 58175 
249 1 49.6999 39.0921 21.3864 7.94101 -467934 -105844 -45809.5 -68286 -65010.7 -1790.5 
252 1 35.3451 44.0817 21.3992 12.8858 -112464 71427.8 55590.5 -211536 -41515.2 -120041 
251 1 35.3953 42.3782 19.1126 20.9507 140165 274357 271437 -21806.1 14072.2 -111295 
254 1 38.2497 42.4521 19.0748 7.58592 -162745 -224192 -164293 12056.9 -127365 -54538.9 
256 1 36.8507 41.5833 21.4341 13.2032 -177460 213159 33326.2 -300825 -98527.8 -103748 
255 1 38.2078 44.0905 21.4066 8.14653 -188908 -159590 -193637 12867.3 -8162.79 -177389 
258 1 41.1335 42.4177 19.0128 7.82719 -401539 -254867 -204874 11222.4 -20609.5 -45242.8 
260 1 39.6868 41.5889 21.3966 8.28425 -302326 55142.6 -274539 83714.1 -172219 -52218.6 
262 1 43.952 42.4412 18.9442 7.5745 -339684 -254450 -273475 60162.8 -43668.9 -16143.5 
264 1 42.5515 41.5992 21.3765 8.12855 -224459 70105.8 -95234.6 -96758.7 -31369.4 -90998.6 
263 1 43.9495 44.0985 21.3227 7.92492 -297769 -302076 146447 44357.2 3855.57 -30775.9 
266 1 46.8508 42.4077 18.979 7.60367 -205717 3433.03 170188 -50934.4 76749.6 -44995.9 
268 1 45.4143 41.6476 21.3632 7.6917 -346260 -128417 198678 -123006 104842 -65780.3 
267 1 46.8155 44.0631 21.3607 7.6675 -370578 -194991 123135 -133033 4194.07 -78976.4 
270 1 49.6765 42.3971 18.974 7.8927 -442368 26156.7 178601 32323.4 -14036.2 29663.7 
272 1 48.2641 41.5646 21.3994 8.04306 -397857 -198227 267599 -2747.65 -27281.6 -13509.8 
271 1 49.6467 44.0909 21.3427 7.93143 -406454 2946.04 246763 -99039.3 18372.2 -51395.7 
275 1 33.9137 44.8659 19.0095 20.3812 232065 221793 331504 -126474 39871.2 43344.4 
278 1 33.7999 46.4844 21.4129 13.2654 152287 -56808 120943 110348 -47972.5 102462 
279 1 36.7843 44.8831 19.01 7.9621 22374.7 -257125 -30309.8 67251.9 -6612.55 30633.2 
282 1 36.7363 46.5675 21.3712 8.0039 44224.8 -295050 -230972 -12134.5 -82592.4 48972.3 
259 1 41.0824 44.136 21.2866 7.84604 -301212 -132574 -214973 44232.9 -208567 69159.1 
283 1 39.7124 44.9245 19.0159 7.35561 -233101 -402251 -260194 10279.3 -249300 150733 
286 1 39.6446 46.608 21.3533 7.84598 -269331 -296894 -279942 78646.9 -80252.7 -41759.2 
287 1 42.562 44.9254 18.9331 7.55335 -531346 -376736 -244323 76564 60835.6 29730.9 
290 1 42.5166 46.599 21.3138 7.96466 -350775 -207386 44150.1 8687.96 -56862.1 7233.72 
291 1 45.4091 44.938 18.9332 7.46037 -351414 -81544.2 189655 63537.6 19951 -36451.2 
294 1 45.3628 46.5771 21.3165 7.72148 -227331 -38367.4 146502 -41745.2 -66014 -1023.72 
295 1 48.2426 44.9104 18.9512 7.96187 -169688 25892.7 226843 -20761.8 12597.3 92408 
298 1 48.2223 46.648 21.2977 7.7288 -298055 12537.5 104635 84319.5 -17815.8 22883.5 
273 1 32.4292 47.2951 19.0222 29.7035 228519 369180 554642 68416.2 33699.4 -85992.1 
274 1 32.4482 48.9259 21.3565 26.206 -49924.7 254884 377441 51152.3 -83114.1 -13735.7 
276 1 35.2791 47.3485 19.0272 8.12252 -35739.1 -178016 14020.9 -101431 -131313 -199455 
277 1 35.2599 49.0175 21.3448 8.30837 -86690.9 -7078.45 38784.2 140323 9761.16 -111086 
299 1 33.796 49.8285 18.9826 10.5131 100164 270482 264958 124876 -83624.9 -137136 
280 1 38.1843 47.3852 19.0227 7.89223 -158285 -300561 -122959 -21726.5 -51920.7 -11995.7 
300 1 36.7088 49.8239 18.9729 7.78605 -28999.1 -331177 9237.02 99414.7 97540.1 -196604 
281 1 38.1771 49.0618 21.3698 7.81327 -125087 -412534 -279931 700.866 -64565.4 -31777.4 
284 1 41.0764 47.3955 18.9782 8.0257 -108332 -448555 -80464.9 -68158.2 -32238.3 -5331.24 
301 1 39.6193 49.8549 18.961 7.8701 -87742.9 -482609 99007.7 57825.2 -91327.3 46371 
285 1 41.0739 49.0947 21.3021 7.6409 -366387 -591192 -101554 -117792 -2854.6 -12532.6 
288 1 43.9988 47.4073 18.9177 7.55259 -182291 -298936 236050 88672.3 -53163.4 146355 
302 1 42.5239 49.8682 18.9336 7.68477 -252899 -311276 -29292.7 -840.831 67555.3 82227.5 
289 1 43.9378 49.1037 21.3364 8.0524 -321222 -279542 238460 -30776.8 -152989 27526.4 
292 1 46.8335 47.4616 18.918 7.51479 -386992 -333417 65769.2 -54405.7 -6840.61 96872.5 
303 1 45.37 49.9291 18.8848 7.61517 -385639 -680752 119032 -124109 32849.2 25214.8 
293 1 46.7975 49.1009 21.3189 8.04643 -219074 -154061 288027 85761.6 12707.5 -34861.6 
304 1 48.2521 49.8825 18.9134 7.76692 -442517 -593618 40605.4 -48272.1 -7771.7 -22829.1 
296 1 49.6939 47.4266 18.9286 7.55121 -582597 -370450 -191349 121746 -28943.6 60839.5 
297 1 49.6693 49.1152 21.295 7.86727 -402373 -340653 -37447.3 4549.32 40804.2 31687.4 
315 1 42.6007 34.9373 23.679 24.6777 205798 -191707 31317.9 -191278 30141.6 -5533.98 
306 1 47.0575 32.5068 23.6837 48.1065 632490 -271795 209142 -182053 28144 65808.9 
319 1 45.4386 34.8526 23.7282 10.4243 -58606.4 -206216 -353273 7987.36 -125055 -52735.1 
308 1 49.901 32.4552 23.782 30.4499 834304 -9679.26 351947 -124889 40953.9 -63811.6 
323 1 48.3452 34.9105 23.7373 7.21726 -203775 -595032 -352264 -308784 -155339 95022.2 
310 1 38.3632 37.3403 23.7793 28.0268 -229306 496639 339607 -34217.6 -35444.2 -6927.81 
312 1 41.1061 37.4293 23.7428 10.1275 -447105 -187925 -327613 -21506.9 -49323.9 20347.5 
316 1 43.9825 37.3529 23.7266 8.14226 -642737 -154366 -399803 -96825.7 -58789.3 49443.5 
320 1 46.7885 37.3827 23.7319 7.8478 -379970 -90129.6 -398930 -62592.5 4499.38 -38904.5 
324 1 49.724 37.4243 23.7734 7.60579 -153451 -264736 -209325 -34247.5 -40410.8 -10583.9 
329 1 36.8756 39.8846 23.7841 20.188 -7058.52 578195 137982 -219878 -34610.8 -37014.1 
333 1 39.6738 39.9165 23.7428 8.07812 -227693 24438.5 -249553 96884.8 105202 -25448.3 
337 1 42.6029 39.9192 23.7567 7.58823 -156095 -45715.8 -322745 -41804.2 4161.93 -175135 
341 1 45.436 39.9189 23.7553 7.58717 -498764 -18865.5 -125108 110928 -107775 -125302 
345 1 48.2719 39.9064 23.779 7.86232 -497530 110544 -52998.1 68482.4 16405.3 -6041.81 
327 1 35.411 42.463 23.7689 19.5915 -158944 27024 55521.5 -207339 -71445.2 5325.85 
330 1 38.2132 42.419 23.7672 8.08842 -438699 -145790 -524027 -32880.8 -21096.7 34963.2 
334 1 41.1155 42.4443 23.6904 7.78213 -82766.3 75166.2 -192074 -21069.1 -66225.1 -247378 
338 1 43.9838 42.4263 23.7257 7.55031 -435838 -174338 -253157 -11030.5 -61562.3 -121255 
342 1 46.8112 42.4498 23.7775 7.7476 -279542 -133684 -132477 -1155.2 -105401 -147262 
346 1 49.6876 42.4392 23.7746 7.53716 -445996 -97093.6 -49623.7 23339.4 -119719 -108518 
351 1 33.9012 44.8945 23.7218 20.6448 -29435.1 -189056 -89217.5 -176501 -1374.46 113504 
355 1 36.7521 44.9067 23.7168 8.09166 -369734 -538317 -273672 -96976 -11278.8 -11452.7 
359 1 39.6471 44.9427 23.7291 7.98879 -63486 -152223 -188992 -51555.6 -175327 43842 
363 1 42.5548 44.9439 23.7003 7.5023 -173382 -227135 3113.05 7395.96 43241.8 34497.8 
367 1 45.4053 44.9512 23.711 7.6433 -471329 -332704 -84844.8 67579.8 -36660.3 -19478.9 
371 1 48.2432 44.9716 23.6891 7.60791 -471162 -140029 104287 15664.2 -1257.74 -100608 
349 1 32.4073 47.3654 23.7301 29.4523 74850.8 280565 339874 14686.9 -10655 132960 
352 1 35.2428 47.3294 23.7388 7.70002 -254062 -310350 -359687 -129530 -12038.8 -132363 
375 1 33.764 49.8573 23.6769 10.2842 61343.8 19286.8 -227356 92682.5 -213377 -52956.8 
356 1 38.1524 47.4152 23.6946 7.94855 -76551.6 -407307 -317700 -84440.7 -59289.2 110300 
376 1 36.6983 49.8801 23.7003 8.14338 12610.4 -209946 -156216 150039 50472.3 7410.86 
360 1 41.0768 47.4092 23.6785 7.72385 -135319 -230851 62503 -9644.64 -63406.6 -27694.3 
377 1 39.6001 49.8592 23.6828 7.52805 -208313 -35582.6 -25531.1 -81245.2 -225219 51356.6 
378 1 42.462 49.9321 23.7205 7.90542 -229880 -147913 -25404.2 -77357.2 -62205.3 64033.7 
364 1 43.9458 47.4286 23.7057 7.8553 -283004 -247438 77532.2 -70068.3 -88377.3 5159.13 
368 1 46.8029 47.4307 23.7007 7.8542 -248093 -129948 173647 11795.1 33884.8 65633.1 
379 1 45.329 49.9296 23.7053 8.00507 -98444.8 -368423 -39838.9 -115440 -63618.3 -54345.9 
380 1 48.2565 49.9521 23.6745 7.85757 -192667 -424202 80127.3 131737 -57922.3 -89980.2 
372 1 49.6798 47.4483 23.6809 7.88577 -310676 -273517 294288 9747.71 -64228.2 -17658.8 
385 1 42.4791 34.8144 28.4161 28.3561 558947 429430 722584 -107578 1625.62 -78699.2 