ITEM: TIMESTEP
20000
ITEM: NUMBER OF ATOMS
5538
ITEM: BOX BOUNDS pp pp pp
0.259222 99.7408
0.0641917 99.9358
-7.92187 107.922
ITEM: ATOMS id type x y z c_csym c_2[1] c_2[2] c_2[3] c_2[4] c_2[5] c_2[6] 
15 1 45.4217 34.878 4.81499 36.8297 228185 43854.5 -30762.2 -83705.2 -22993 -37256.2 
2 1 46.7808 32.4491 4.9227 104.77 419326 257559 149933 -21358.9 48512.5 -66406.4 
19 1 48.2528 34.8391 4.7863 31.4382 512392 450981 218670 47454.3 115086 -32338.5 
8 1 41.1165 37.526 4.62777 45.5506 327267 -124251 -120803 -215354 146298 -84040.1 
12 1 44.0078 37.3287 4.6436 32.0136 421828 446698 88716.1 -154103 194693 52084.5 
16 1 46.851 37.3296 4.79411 22.1541 -79041.5 -93024.1 -252113 -26481.8 -86045 -101881 
20 1 49.6985 37.3287 4.82733 21.9593 77608.8 340967 -220576 26786.9 68737.1 -43027.4 
29 1 39.739 39.9733 4.59691 36.8516 62606.4 237387 -102278 -89760.7 129148 -11980.9 
33 1 42.5683 39.8811 4.59916 23.5211 101565 111100 122891 -237155 114578 29275.2 
37 1 45.451 39.8119 4.62935 24.1459 127188 82746 31915 -15326.1 -1789.64 26636.9 
41 1 48.3058 39.7905 4.6643 23.8129 52965.3 108312 270659 76797.2 125978 66797.5 
26 1 38.4184 42.5246 4.67148 33.4522 -262451 -243147 -569753 -165423 7135.64 63071.8 
30 1 41.2182 42.393 4.5765 23.3482 -126139 108309 34587.3 -76906.6 20445.1 -104212 
34 1 44.0671 42.3393 4.58709 23.5846 -131510 -52257.5 130896 -286621 -3252.39 -21092.4 
38 1 46.8912 42.2525 4.6082 23.3562 -117466 128190 250184 28210.9 13406.3 18992.6 
42 1 49.7335 42.3142 4.68066 23.6624 118110 111542 -126261 218990 75469.3 -140608 
51 1 36.8694 44.905 4.59437 36.8561 278469 468810 12426.8 -42245.1 127056 74829.4 
55 1 39.7381 44.9338 4.60567 23.009 84670.7 -324748 94764.5 -351184 -33825.4 62551.9 
59 1 42.6095 44.8813 4.61032 22.4335 -4973.89 -6589.23 -28605.5 -210016 -860.975 -65405.3 
63 1 45.4421 44.7237 4.55928 22.7969 14798 23526.1 135116 -209925 62714.3 49790.1 
67 1 48.3214 44.7681 4.57156 24.3319 391593 436185 268766 86896.9 36186.3 -49800.2 
48 1 35.4413 47.3744 4.52934 39.0345 352220 455749 326269 -25625 -51757.6 21154.2 
71 1 34.0041 49.785 4.5931 46.1669 160204 457161 76475.6 164867 -176024 23668.4 
52 1 38.3056 47.3998 4.59261 23.6498 181328 167447 29688.9 94019.1 -63138.2 -42717.1 
72 1 36.8139 49.8732 4.55432 24.0183 255642 362237 244681 -99452.9 1849.88 -14266.9 
56 1 41.1445 47.3651 4.6417 22.7251 97683.9 -2122.63 -131158 -190085 -57022.5 7165.65 
73 1 39.6997 49.9003 4.59892 23.1927 222040 30714.7 117896 -77608.2 -67381.6 -11535 
60 1 44.0489 47.2738 4.5395 23.1738 129619 268672 349264 -279369 -78914.3 31732.1 
74 1 42.5618 49.8328 4.6226 22.8335 35732.6 479429 -126377 -137330 -83123.5 -43364.5 
64 1 46.8553 47.2775 4.58572 23.7781 187111 617402 69137.2 -50797 46320.6 10510.4 
75 1 45.3661 49.7943 4.56347 23.102 222962 692504 59472 -106591 16775.5 -23325.1 
68 1 49.746 47.3184 4.60833 23.6259 275994 135671 -52103.3 30588.9 116457 -48166.5 
76 1 48.2517 49.7976 4.5406 24.2985 323132 715785 313095 -58562.8 45087.3 -624.642 
4 1 48.4425 31.7004 7.04087 49.2814 58906.7 -59519.8 328595 -193420 -33115.9 -87037.6 
11 1 40.9988 34.4888 7.27511 63.8992 71411 -285799 49687.9 -317541 -181753 319789 
1 1 43.911 34.0927 7.06839 26.7897 1.11651e+06 235928 469738 -242985 79486.7 56433 
3 1 46.8781 34.0537 7.14045 9.99012 -10054.3 -314062 -508300 -102532 -38961 -194850 
5 1 49.7627 34.1217 7.17762 7.17214 -544939 -734750 -208133 -118441 350720 -95983.4 
6 1 36.7797 36.9062 6.8424 94.4162 75738.8 128282 70984.7 -168062 -40211.6 122582 
10 1 39.5738 36.7385 6.77567 22.6067 110864 -449768 139482 188588 168383 125326 
14 1 42.5694 36.6139 6.92401 7.99922 -607689 -650406 124299 -591940 334305 -34068.6 
18 1 45.3667 36.4958 7.10711 7.60469 -490100 -127179 -161936 72091.5 -17545.8 -354633 
22 1 48.2681 36.5431 7.12529 7.70022 -165347 -391484 -404602 12085.6 72694.1 120546 
25 1 35.4891 39.3269 6.63542 37.3462 60486.1 247001 358412 -246498 133064 82861.9 
7 1 38.2732 39.2118 6.83737 7.57505 -613213 -737209 -235443 -357344 -8178.26 22002.9 
9 1 41.1526 39.0942 6.93602 7.61308 -459674 -421970 -359576 -52218.3 12941 -194478 
13 1 44.019 39.0282 6.98915 7.81598 -396119 -437554 137605 -286004 -72617 -5714.55 
17 1 46.8708 39.0526 7.01222 7.32468 -258804 -165481 -64703.8 231194 55907.4 -248489 
21 1 49.7622 38.9928 7.11075 7.53653 -286544 -300134 34274.7 -174776 -4506.81 -104379 
23 1 34.0682 41.741 6.65449 38.439 153451 328866 322930 -389747 125949 75925.4 
24 1 35.3872 44.149 6.82128 7.66647 -345765 -682064 -216721 -282479 175300 42356.3 
47 1 32.5616 44.1163 6.68006 42.713 488184 795399 319940 -334933 154150 101551 
28 1 36.8623 41.7205 6.8517 7.56829 -688834 -615052 -203873 -384535 37420.4 -50752 
27 1 38.262 44.1178 6.9656 7.59779 -540092 -790513 -537013 -268592 -69592.3 -191773 
32 1 39.7105 41.5951 6.92929 7.95785 -656445 -933684 -538704 -367983 -335953 47271.6 
31 1 41.1121 43.9916 6.92266 7.44972 -81904.3 -374787 146877 -253528 -37827.7 35492.8 
36 1 42.6042 41.5547 6.96915 7.71429 -406756 -305007 151876 -101750 -12171.4 -118094 
35 1 44.031 43.996 6.93927 8.04424 -220452 -375579 39722.3 -293725 -139761 -8362.76 
40 1 45.4362 41.4784 6.98228 8.08343 -350788 -439174 209185 63495 16865.2 44403.4 
39 1 46.8835 43.9859 6.95901 7.79041 -163016 -181725 364121 76627.7 -36440.4 -57635.3 
44 1 48.3264 41.5332 7.03108 7.31031 -316145 -113089 281008 -161076 33100.9 -59277.1 
43 1 49.7978 43.9391 6.96826 7.50024 -357467 -439011 201542 -118659 43133.8 -106042 
45 1 31.1674 46.5686 6.91399 94.0075 100306 506652 42827.5 -263130 69916.3 -72496.8 
50 1 33.9096 46.5938 6.8351 7.94542 -361103 -288951 243530 -26146.2 -73446.8 152158 
54 1 36.7731 46.5851 6.93683 7.62811 -357499 -650880 254877 -216707 -175006 -1798.98 
58 1 39.65 46.6016 6.97793 7.4114 -375430 -557818 -39985.1 -231142 -97949 83941 
62 1 42.5251 46.4859 6.94774 7.58582 32883.8 -86743.8 -74852 -53942.1 -189314 -45916.3 
66 1 45.433 46.4427 6.91825 8.01217 16840 -256283 105339 -137535 40183.3 108485 
70 1 48.3363 46.4406 6.91551 7.91055 -75176.1 -139468 204095 -303263 52344.1 29719.2 
46 1 32.4911 49.0299 6.90232 25.6681 -133895 -185676 142481 -223545 -96997.4 67918.5 
49 1 35.3318 49.0417 6.91301 7.71137 -560945 -577186 70429 126762 -261926 12136.6 
53 1 38.2053 49.0066 6.95289 7.84622 -378429 -591340 274860 -69390 -19425.9 -99997.2 
57 1 41.0558 49.0152 6.96764 7.60553 -268199 -477238 5219.35 -147679 -80040.6 -4366.8 
61 1 43.9595 48.9718 6.92539 7.86458 -111171 -22838.7 71124.3 -37907.4 -77224.1 186627 
65 1 46.816 48.9683 6.91042 8.11866 -208338 -39552 138171 -162662 -51122.9 -27825 
69 1 49.6788 48.9216 6.94427 7.49476 -246053 -377628 -22633.5 -192682 58684.8 -80299.7 
78 1 46.9373 32.3055 9.35663 29.8647 633600 463984 665708 -116851 -80584.2 217887 
87 1 42.6124 34.8507 9.43549 16.8964 -61119.7 250751 96812.8 -50025 -169630 -320695 
77 1 43.8938 33.9544 11.8013 28.596 506904 440880 577551 -176133 -69067.9 72304.1 
91 1 45.4125 34.7964 9.52665 10.2654 -161741 119179 10750.6 -167060 -6037.49 -60451.5 
79 1 46.7825 33.9123 11.8096 12.9356 241096 184818 43840.3 -44557.9 -101267 270834 
80 1 49.7807 32.3213 9.42054 20.0972 614110 51441.8 224257 -105748 -66543.1 19922 
95 1 48.2675 34.8193 9.46708 7.88433 -95334.1 -103999 -432587 -41554.9 31249 -256277 
81 1 49.6774 33.8519 11.8617 11.7069 567607 452678 425189 -9545.96 30823.1 -49382.9 
82 1 38.1548 37.5041 9.151 16.3974 489527 18253 520117 -241536 148364 -112252 
84 1 41.0783 37.3145 9.22596 8.37761 425960 664510 419000 -160655 434752 358787 
88 1 43.9687 37.39 9.41476 7.25839 -306313 -376251 -146115 -60840.6 259525 -162261 
90 1 42.5156 36.498 11.7308 10.7236 -467349 143609 96021 -344952 239087 -333433 
92 1 46.7994 37.2838 9.44351 8.15291 -371147 -210520 -43030.7 -52781.9 -3269.99 -210639 
94 1 45.3455 36.4296 11.8092 7.74845 -125290 -2541.1 -134392 -88495.1 28025.2 -176784 
96 1 49.7245 37.3182 9.46689 8.21083 -168158 -76012.4 92901.5 -108931 18572.9 -40817.5 
98 1 48.2418 36.3975 11.7947 7.74397 196733 163924 -104085 -56616.5 -11336.6 -88205.9 
101 1 36.7365 39.9899 9.14997 12.6021 367239 373579 743355 -70261.5 271332 145304 
83 1 38.1153 39.0501 11.5836 12.7989 172027 510522 611017 -225467 153945 -190758 
105 1 39.6321 39.8828 9.23454 7.7729 39145.4 71573.6 56752.1 -257082 -34582.4 -15064.2 
85 1 40.9912 39.0403 11.6984 7.65302 -438670 -602151 -106814 -259450 79244.4 -10667.1 
109 1 42.5151 39.8165 9.37367 7.7934 -204412 -92941.1 17144.4 212214 -145667 21056.5 
89 1 43.8456 38.9795 11.7298 7.23944 -106601 -73454.1 -275034 5128.97 -81231.3 -188135 
113 1 45.3892 39.8054 9.35646 7.80262 -380545 -313071 20311.2 -197485 -42876.9 -132659 
93 1 46.7464 38.913 11.8214 7.83737 333358 161018 30361.3 -24809.2 127396 -82087.2 
117 1 48.2276 39.7617 9.48638 7.73136 -83321.6 8351.81 316463 71379.2 -16467.1 -227769 
97 1 49.7016 38.9148 11.8786 7.81777 71896.1 -11894.3 -69282.1 40766.6 16499.2 -17536.3 
99 1 35.308 42.4845 9.1303 12.9032 297215 42204.6 550554 -91026.4 252280 164415 
100 1 35.1617 44.1056 11.5751 11.9874 261363 147960 529683 -90474.6 191488 -73271.5 
102 1 38.2164 42.4331 9.25096 7.97419 207984 -202980 -102394 -19821 3805.65 -37823.4 
104 1 36.672 41.6027 11.569 12.3796 384746 582140 681145 -293497 98627.6 -99103.3 
103 1 38.1335 44.0549 11.6278 7.98434 306120 -43486.6 124237 -135309 -105830 1352.5 
106 1 41.1414 42.338 9.30955 7.53635 -20586.9 203506 100628 -23005.1 -91401.7 -494.39 
108 1 39.6026 41.5036 11.6944 8.01222 227107 -80137.8 186564 57457.7 80556.4 -25326.2 
107 1 41.0298 44.0046 11.721 7.84522 6930.75 -27473.8 299138 9214.39 -61353.2 84400.7 
110 1 43.9848 42.3368 9.35465 7.89847 -186060 44776.9 -39714.1 -85250 -89341.5 -81305.8 
112 1 42.4879 41.5339 11.7186 7.93555 -119151 -381966 -86442.2 -105291 -51869.3 65847.3 
111 1 43.8967 43.9536 11.7221 7.58231 12190.9 -111934 287233 -264871 -143739 -83404 
114 1 46.8736 42.2863 9.40331 7.9693 -168072 -99579.8 -67426.3 -38584.5 154120 -163007 
115 1 46.7895 43.9589 11.6737 8.10763 -93469.9 -140684 10242.6 -171632 -23362.3 -114509 
116 1 45.3959 41.4803 11.7063 8.12439 105881 68624.3 15331.8 -108129 -147550 -57272.6 
118 1 49.7366 42.3012 9.40815 7.5709 -215377 113125 79559.8 67912.9 45744.6 -101017 
119 1 49.6511 43.9442 11.798 8.16853 -52906.7 -99765.8 -45160.4 48596 -9773.18 -81224.5 
120 1 48.311 41.4328 11.7752 7.52815 -320422 5741.74 -306566 -87199.2 -81508.5 -217777 
123 1 33.8617 44.9446 9.10005 13.0443 314165 -93734.6 402785 -146612 282904 222437 
126 1 33.7717 46.551 11.57 12.8554 -189397 129100 -116555 73678.8 230015 133766 
127 1 36.7636 44.8876 9.27853 7.58924 -111006 -410208 -3410.74 -45587.1 -24529.7 60795.6 
130 1 36.6456 46.5222 11.7151 8.12845 -62013.9 -171086 -141106 -71276 -17053.6 153920 
131 1 39.6612 44.9208 9.33517 7.61282 -121195 -114204 42431.1 -223047 -83405 8594.94 
134 1 39.5501 46.5153 11.7321 7.80897 -58332.5 -157892 19804 -116510 -183929 -51401.8 
135 1 42.5209 44.8882 9.33657 7.6389 -78744.6 -92340.1 363955 -77449.5 -51773.3 82148 
138 1 42.4183 46.5227 11.7261 7.65582 162577 101831 323653 -55964 -169766 -25799.3 
139 1 45.3917 44.8111 9.30347 8.09067 -204934 -174062 -76623.8 -65581 -179882 -82032 
142 1 45.3435 46.4522 11.6716 7.74117 233461 19867.8 177968 12780.8 -139752 64310.6 
143 1 48.2691 44.7941 9.35122 8.1602 -53071.1 -115531 119068 -42877.2 -17908.6 -109957 
146 1 48.2304 46.4456 11.6631 7.92113 16219.1 -4200.25 -52690.2 30969.2 -107434 -138824 
121 1 32.3981 47.4049 9.21837 16.9861 53507.9 159120 328255 -50899.8 -165593 264252 
122 1 32.44 49.0795 11.6323 24.0966 -83029.6 454034 405849 -199918 -66850.4 -9849.6 
124 1 35.2587 47.3553 9.33494 7.96112 -179847 -243413 186278 -157971 130917 110623 
147 1 33.846 49.8367 9.27922 10.0756 -45123.9 -130999 39179.8 46377.9 110488 21602.2 
125 1 35.2568 49.0933 11.704 7.18876 -525291 -162496 84693.5 -81906.7 -37373.4 86358.5 
128 1 38.1575 47.3648 9.37584 7.98311 -4034.91 -450874 91161.9 -76373.2 -69701.5 -50597.7 
148 1 36.7258 49.8423 9.32905 7.81067 -182125 -122168 163026 43370.6 -49869.3 32204.9 
129 1 38.0806 49.0161 11.7336 7.65297 -256250 -67108.7 -69296.2 30115.9 3384.9 36885.6 
132 1 41.0914 47.3629 9.33025 7.24922 6388.96 -480263 76315.3 -69828.9 -197226 30729.9 
149 1 39.5881 49.8079 9.38765 7.92864 -97930.8 -250136 163702 -72703.3 -51382.5 99413.6 
133 1 40.9773 49.0037 11.7623 7.85765 114489 -59675 -11863.5 -6971.11 -218087 12022.3 
136 1 43.9924 47.3084 9.28945 7.63978 -65926.2 -256625 162439 -46054.6 -163221 -16759.3 
137 1 43.9052 48.976 11.6603 8.00136 191081 104532 123589 -79710.9 -137565 72019.8 
150 1 42.5152 49.816 9.31562 7.98284 67945.4 -72917.7 195164 -72350.3 -197678 -33508.9 
140 1 46.8673 47.291 9.28601 7.91068 -134181 -70842.5 206207 -654.93 -146337 14248.8 
151 1 45.394 49.8121 9.29988 7.92551 -278798 11738 196076 -82949 -22251.7 -42767.3 
141 1 46.7922 48.9568 11.6724 7.78993 99820 219559 146414 -40920.2 -33111.3 137007 
144 1 49.7362 47.2974 9.3427 7.94567 -424781 -196577 16214.6 -88677.8 -23139.6 73376.8 
152 1 48.221 49.8106 9.29289 8.11022 -291587 -144070 -17902.1 -227290 -23660.7 20821.3 
145 1 49.6649 49.0099 11.6815 7.74437 -132789 33914.4 37500.7 -77251.2 27189 -21415.3 
163 1 42.4847 34.8464 14.1665 25.7139 612988 329964 898581 -102257 -49454.5 -82927.2 
154 1 46.8159 32.3583 14.1184 38.8022 553140 -97728.5 245930 60451.9 -3807.86 50973.4 
167 1 45.3625 34.73 14.1471 10.1028 105467 -73079.5 21689.9 20936.3 54263.2 -19189.6 
156 1 49.6278 32.2659 14.2161 33.0394 887338 307479 381084 -66750.5 -9289.99 1495.23 
171 1 48.2215 34.7932 14.1794 7.46111 -183849 -389603 156030 -67052 27246.8 -38846.4 
158 1 38.2907 37.3518 13.9806 27.0789 12009.9 221631 821191 -250376 -39187.3 -71220.5 
86 1 39.7223 36.6522 11.5659 22.9778 -69534.6 -165939 555464 -621227 143531 1297.7 
160 1 41.0689 37.3259 14.0048 9.49538 -324387 -58111.6 317663 12527 61169.2 -115087 
164 1 43.9005 37.3268 14.1396 7.58509 -102935 142383 272703 -233001 -120914 -146269 
168 1 46.7888 37.231 14.1826 7.90923 -261259 -83146.2 149910 51358 14270.9 67044.3 
172 1 49.6277 37.2719 14.214 7.87613 -191894 -120448 99245.8 -49980 8435.19 -13356.9 
177 1 36.7896 39.8709 13.9319 19.5141 -126246 443677 270404 -260454 32272 -100304 
181 1 39.5746 39.8121 13.9999 7.71892 -749842 -234490 -105353 -28308 149890 52863.6 
185 1 42.3981 39.858 14.0403 7.9268 -191848 -115819 104902 -113369 30865.7 -50875.3 
189 1 45.3101 39.7501 14.1334 7.96228 94684.5 -9357.06 287025 -234459 190528 -260681 
193 1 48.1944 39.7574 14.1671 7.91708 3835.29 -157854 201807 110609 -26182.8 -108988 
175 1 35.3238 42.4183 13.9458 18.3494 112700 294068 384399 -240514 24768.7 -75430.7 
178 1 38.1505 42.3269 13.9862 7.61393 -227966 47085 260809 -130200 85462.6 -99095.3 
182 1 41.0118 42.3574 14.0748 7.91436 -87934.9 -7801.29 105219 108581 -32730.9 -11288.6 
186 1 43.8868 42.3119 14.1186 8.04139 101210 330613 147303 -91250.2 -180717 134353 
190 1 46.7809 42.2399 14.0598 7.8835 -72375 208994 129368 -52342.7 -50715.2 -191227 
194 1 49.6304 42.2592 14.1391 8.28412 -155182 -24337.2 -222467 68823.1 -54725.1 -168071 
199 1 33.7683 44.8627 13.8848 20.8142 125342 192529 346276 -21512.2 152281 -12757.9 
203 1 36.6186 44.8983 14.0184 8.06096 185725 -144775 150066 -152989 -98199.3 137520 
207 1 39.5257 44.8479 14.0766 8.19044 148278 -18162.6 32549.8 -102155 76527.8 57424.9 
211 1 42.4271 44.8785 14.127 7.803 235977 145508 262732 -125085 -66927.7 -96568.8 
215 1 45.3071 44.8632 14.0625 7.61952 146854 252616 82331.8 -50723.6 -207940 -17359.2 
219 1 48.1833 44.7697 14.0948 8.07976 -105399 71030.4 -184060 -8236.46 43028.8 -114208 
197 1 32.3383 47.292 13.857 36.0896 -145380 184148 459851 82297.4 142143 -15176.1 
200 1 35.1291 47.3618 14.0026 8.04048 -93300.3 -140612 174529 57654.6 32466.7 38781 
223 1 33.6689 49.8033 14.0363 9.62492 35516.8 133856 -129917 -15855.9 28531.5 57093.7 
224 1 36.6389 49.8364 14.1197 7.79853 91366.9 -157109 -97876.2 96593.7 44660.2 -3568.29 
204 1 38.0804 47.3872 14.0935 7.77132 -23645.8 -131368 -114964 101960 -128725 37858.8 
225 1 39.5293 49.902 14.0984 7.67776 -149297 -327843 183370 -159179 -32328.1 44808.6 
208 1 40.9245 47.37 14.109 7.99976 -60044.1 -120222 -234610 -110008 -22048.4 91354 
212 1 43.8794 47.3756 14.0766 7.80656 158590 -284059 -107543 -46807 -132892 -6069.48 
226 1 42.3993 49.8448 14.0667 8.31591 -160841 -74317.9 75876.3 54675.4 -255624 41416.4 
227 1 45.2912 49.8412 14.0407 8.25172 63363.8 -4241.53 129392 -86231.1 -99380.4 129731 
216 1 46.7759 47.3487 14.0365 7.6454 -217389 46792.5 -112979 -26995.5 -104499 118252 
228 1 48.2144 49.8632 14.0509 7.80594 7297.8 -223.416 215528 -60766.8 30612.5 -14710.2 
220 1 49.5972 47.2868 14.0417 7.96624 -166078 166812 133980 -47657.4 -13718.6 -39574.7 
153 1 43.9179 33.9935 16.5163 24.7195 180342 152471 686863 -362241 -32243.3 5330.46 
155 1 46.7347 33.8437 16.5099 12.2514 218710 163776 36954.2 -93486 -35673.6 304801 
157 1 49.6362 33.8444 16.5777 11.8962 737894 401512 459582 -22616.2 -45047.8 -59080.6 
162 1 39.5396 36.5657 16.4291 25.7673 113423 103116 728945 -263723 -94154.4 -51638.8 
166 1 42.3551 36.4126 16.55 10.5081 239264 374667 270936 -82984.7 23768.7 -127147 
170 1 45.3015 36.4052 16.4993 8.03738 202801 40411.7 217890 -298326 43076.2 72624.1 
174 1 48.1668 36.3542 16.6068 7.36806 298972 224103 -28095 148418 103348 6011.33 
159 1 38.0438 39 16.3388 12.4561 29023.1 175822 481507 -78992.7 52303.2 3274.27 
161 1 40.9234 38.9694 16.429 7.49733 29565.9 -83693.6 292114 -68552.9 21864 -29526.9 
165 1 43.8078 38.9578 16.5058 7.75736 269390 199262 183476 -47492.6 91500.1 -167315 
169 1 46.7543 38.8794 16.6029 8.1933 304614 83078.6 220370 -165031 73895.4 5725.09 
173 1 49.6361 38.9236 16.5663 8.00922 254421 352848 133703 -53493.2 55251.6 26192.6 
180 1 36.6019 41.4642 16.3304 12.9596 293438 445611 572883 -127388 -173365 68384.4 
179 1 38.0288 44.007 16.3651 8.03002 367790 311657 103020 22022 66045.4 121720 
184 1 39.4928 41.4551 16.4205 7.68155 205759 -1940.54 168345 -11286.3 3859.29 28295 
183 1 40.9097 43.9697 16.4718 7.83288 188900 309082 62354.2 42195.7 -45377 -79855.1 
188 1 42.4035 41.4744 16.4815 8.09267 -132768 87078 81163.9 -42296.2 -136486 -5578.18 
187 1 43.8244 43.9878 16.5156 8.20516 -227901 51530 -361668 -51415.4 -146899 -71940.7 
192 1 45.2383 41.4254 16.4467 7.88471 -202880 84281.2 11968.1 -118890 -123086 -80666.2 
191 1 46.6592 43.9291 16.4017 7.65166 -161107 193469 16497.7 43107.4 148554 -74836.3 
196 1 48.1172 41.4058 16.5428 7.73814 335217 207232 143892 1391.58 -18677.8 -88389.6 
195 1 49.5483 43.9649 16.4552 7.90026 359608 421587 67591.6 39749.2 -71198.2 -20253.1 
176 1 35.0684 43.9652 16.353 12.9533 581615 603247 715593 -159179 45858.3 -70441.3 
202 1 33.6428 46.4874 16.3309 12.8573 258120 378938 685813 24056.4 1808.77 137081 
206 1 36.5338 46.4854 16.4056 7.8596 338563 217976 92051.1 84995.7 16014.8 -81917.2 
210 1 39.4631 46.5236 16.4168 8.15894 244445 -65000 -14956.8 53684.9 -28157.7 98829.7 
214 1 42.4033 46.532 16.4259 8.31889 179969 108888 30815.5 40605.7 -54418.9 -103074 
218 1 45.2778 46.5107 16.3925 7.99135 -264577 54093 -48488 23410.2 -136784 104120 
222 1 48.0994 46.4673 16.3851 7.80076 -50286.4 144113 130389 66844.8 -85073.1 -46966.8 
198 1 32.3114 48.934 16.2787 25.4746 148158 513246 758767 84618.3 265475 207542 
201 1 35.1487 49.0452 16.4066 7.60503 15752.2 149269 172964 -133432 -13784.1 102433 
205 1 38.0369 48.9696 16.4833 7.62106 47511.2 -90544.2 -158839 133550 -200530 -62258.6 
209 1 40.9337 49.0073 16.4615 7.97356 155913 175483 56931.2 -84607.5 -121541 4066.83 
213 1 43.8339 49.0154 16.3897 8.0534 -139788 -82362.5 -145867 -98954.4 -154177 -195487 
217 1 46.7011 49.0256 16.3749 8.02751 -130316 103158 110726 40559 248.452 -24542.3 
221 1 49.5792 48.945 16.4401 7.92174 220884 224063 133315 7964.98 -58931.6 8861.96 
232 1 49.6803 32.3048 18.9462 31.202 812888 81865.9 250548 18311.6 9948.05 3806.07 
239 1 42.4142 34.7872 18.8572 27.5749 747186 275502 723921 -255526 39821.6 -1132.06 
229 1 43.8606 33.973 21.3013 25.7766 608590 356737 763536 -151954 160578 -153511 
230 1 46.8404 32.3975 18.8134 47.3081 545677 -264024 249035 -170819 -39891.6 299981 
243 1 45.3038 34.7622 18.8874 10.7363 575457 63416 645674 -40266.5 -49992.5 -72689.1 
231 1 46.7723 33.8401 21.3323 11.4036 620946 705460 809775 -236334 34468.3 71484.2 
247 1 48.2201 34.7521 18.9416 7.66387 102249 -547342 -24178.5 -10335.2 -65249.4 139433 
233 1 49.6162 33.9007 21.2652 11.687 239904 308471 262338 -42440.7 -202305 -79983.4 
234 1 38.0957 37.3651 18.737 29.0084 261196 262331 686409 -55953.2 88448.9 -121289 
236 1 40.9278 37.3102 18.8407 10.4686 75878.3 -78103.4 -188851 -78295.1 133234 -185157 
238 1 39.5024 36.487 21.1402 27.1431 309081 131048 663957 -416163 56127.4 48733.4 
240 1 43.8207 37.2492 18.8747 8.44875 278986 149330 133208 -143636 7757.82 -46883.6 
242 1 42.3716 36.4146 21.194 10.6307 41875.9 105620 -108933 -39219.9 45848.4 -14553.9 
244 1 46.7818 37.2294 18.9215 7.77909 198725 114213 -127603 95259.8 38118.4 179716 
246 1 45.2758 36.4362 21.2829 8.27772 168537 485683 11091.6 -97307.7 41756.8 -141177 
248 1 49.668 37.3116 18.9481 7.75854 59306.2 158523 51949.6 42103 -68674.6 134283 
250 1 48.1714 36.4421 21.2651 8.0867 78238.5 436928 -389692 32527.9 -110924 -18055.2 
253 1 36.6656 39.8377 18.6816 20.1241 316136 408050 518370 -239007 83181.4 60032.2 
235 1 38.0436 38.9559 21.1219 12.8841 112170 265511 210597 -308131 127681 36347.9 
257 1 39.5298 39.8148 18.7753 7.56918 -181149 -160358 133464 -70466.4 145782 19139.1 
237 1 40.9119 38.8815 21.1809 7.47424 -65306.6 -298010 -274131 -88692.1 103473 -203394 
261 1 42.3635 39.7936 18.8305 8.04734 -225858 82661 -128797 -63559.4 31726.4 -66753.1 
241 1 43.804 38.9647 21.1863 8.17487 -87666.2 -123489 -274283 -31773.6 144147 33115.8 
265 1 45.2452 39.7615 18.868 8.03865 82452 167034 -22490.9 -239386 116039 -55015.5 
245 1 46.7067 39.0015 21.2664 7.98484 1529.57 176717 -52257.5 -52287.6 114328 44748 
269 1 48.1817 39.7939 18.9328 7.90513 110618 -107479 -220872 14374.1 -61206.8 24786.7 
249 1 49.5952 39.0046 21.285 7.99189 49311.5 104747 -457044 -127584 -131329 31980.9 
251 1 35.1691 42.3836 18.7517 20.4089 153889 310934 355665 -377074 -77551.5 971.684 
252 1 35.1477 43.9412 21.1268 12.3244 157076 240091 405123 -83826.5 139359 -116049 
254 1 37.9967 42.3225 18.7119 8.21939 -123191 -24259 273455 -63379.1 94553 -82402.2 
256 1 36.5448 41.5158 21.1076 12.5862 183246 207849 547860 -63211 -49684.1 171930 
255 1 38.0128 43.9856 21.0914 8.07441 26719.9 276230 -16977.1 -151161 82458.7 130055 
258 1 40.8689 42.3095 18.8339 8.01346 123285 -124115 -115517 -157399 -18544.1 -19145.3 
260 1 39.4475 41.4286 21.1659 7.59792 298878 57815.2 8489.45 -135395 112393 51007.3 
259 1 40.8918 43.9527 21.1384 8.22168 -5792.3 394718 82684.8 -19196.3 77008.3 -117383 
262 1 43.8062 42.3118 18.7915 7.845 47609.9 90458.4 -213518 1528.31 -53751.9 37743.2 
264 1 42.3555 41.4394 21.155 8.30049 -130415 14045.8 -17305 88419.4 -87313.5 -37694 
263 1 43.7336 43.9894 21.1469 7.64566 -60805.9 85519.6 221797 -16266.5 -153634 -34134.4 
266 1 46.6543 42.2455 18.8526 8.03209 46910.8 82440 53826.6 -18572.8 27528 -203587 
268 1 45.1817 41.4472 21.236 7.59566 -290010 -206373 -266645 -66769 143571 -103114 
267 1 46.6365 43.9344 21.1467 7.78386 216874 10258.4 308485 119077 153357 -48297 
270 1 49.6136 42.2657 18.8373 7.99382 183492 85218.5 161791 20819.9 -101386 10314.7 
272 1 48.1068 41.5012 21.2275 7.68516 87736.7 -224103 -9916.13 36570.9 -44939.5 -97793.4 
271 1 49.5382 43.9975 21.2177 7.91974 224022 -18567.8 343121 -53533.4 -129319 -11357.2 
275 1 33.6966 44.9052 18.6988 19.8189 273440 160065 530603 -293072 86852.7 -2850.21 
278 1 33.6119 46.4811 21.1296 12.717 298930 574744 521918 -141217 53417.8 34452 
279 1 36.5585 44.7992 18.7407 8.24154 -43618.5 -170335 296722 -138000 16261 145388 
282 1 36.5027 46.5299 21.1442 7.61821 51433.4 404730 91895.5 -79330.6 -15132.3 114308 
283 1 39.4445 44.8426 18.7883 8.08669 146145 218905 48780 35232.9 169132 62836.3 
286 1 39.3632 46.5454 21.1442 7.754 85097.6 289050 31261.2 29847.4 -77041.6 -48448.5 
287 1 42.3728 44.814 18.7923 8.26058 189672 206243 -200917 46733.6 19977.8 -63505.2 
290 1 42.3072 46.522 21.1477 7.75372 75619.6 358675 -89901.1 95637.6 12520.1 -47584.6 
291 1 45.3069 44.8355 18.7183 7.62842 -262669 92165.9 -159588 6369.17 -225345 -155434 
294 1 45.1712 46.4518 21.1701 7.52547 95772.9 77608.4 -39430.7 -38360.3 -152361 167739 
295 1 48.106 44.7771 18.8197 8.23623 -81922.5 451555 317706 -50822.3 86637.6 -22216.1 
298 1 48.1041 46.4584 21.1987 7.99124 359470 243841 389460 119114 8256.88 -90104.8 
274 1 32.2196 48.967 21.1096 27.6172 48637.2 639932 694240 3701.37 147472 -10395 
273 1 32.2832 47.3828 18.7495 27.4204 -149426 71976.7 710880 -114938 -49033.4 -65211.8 
276 1 35.0614 47.3319 18.7367 8.15187 -329608 -51200 394268 -225792 28096.4 53555 
277 1 35.0175 49.0414 21.1627 7.7416 -52629.3 259824 277438 44705.6 -5047.82 63122 
299 1 33.5981 49.8303 18.8013 10.3266 191559 80873.3 627860 80099.5 45386.2 255884 
300 1 36.5272 49.8108 18.8371 7.91128 494.002 128239 -143036 29439 -81650.2 82252.7 
280 1 37.9395 47.3209 18.8078 7.69735 147818 -51115.9 -118138 38786.6 -46603.4 206206 
281 1 37.9431 49.0297 21.1709 7.94551 -9580.67 -72283.6 -230237 138708 -8309.96 7561.21 
284 1 40.9144 47.3797 18.8136 8.16826 468564 279338 71711.2 -45420 -86850.7 93660.2 
285 1 40.848 49.0525 21.146 7.8787 227858 32381.2 -6676.11 -6285.6 -39003.5 -449.661 
301 1 39.3802 49.8663 18.8176 7.98829 200012 179855 -49609.2 -62247.9 -143231 78393.3 
302 1 42.3791 49.8624 18.7981 8.10457 165502 -74856.4 200602 -112532 -30419.7 -17481.5 
288 1 43.8144 47.3176 18.8393 7.99768 -7969.57 185226 298838 -86926 -87782.2 127498 
289 1 43.7905 49.0455 21.2414 8.34168 7642.42 202194 95800 -39469.2 -12518.9 -38512.8 
303 1 45.2184 49.8123 18.7424 7.94764 -36220 -13176.3 97092.4 25600.2 -127672 51320.5 
292 1 46.6871 47.3567 18.8027 7.79352 -84885.7 -41341.2 380276 -85851.8 -45788.6 -164055 
293 1 46.6247 48.9685 21.1603 7.81853 233299 301108 169659 64345.4 44501.8 -49033.2 
296 1 49.5394 47.2971 18.8102 8.05322 164769 154560 258686 56606.1 43904.3 18141.1 
297 1 49.5914 48.9805 21.1586 7.68906 228398 262490 57908.7 -63640.2 -134116 -46580.7 
304 1 48.1444 49.814 18.8117 8.21375 140335 48599.2 404890 15751.9 -8490.57 5979.42 
308 1 49.487 32.3483 23.6561 31.6109 220406 69147.6 371733 59094.9 41807.8 -28046.5 
315 1 42.4123 34.7866 23.5417 26.9497 376924 215075 581201 -57272.3 140809 3627.75 
306 1 46.7506 32.3792 23.7129 51.5819 233247 155382 264623 47427 16098.1 62733.1 
319 1 45.2606 34.7677 23.6727 10.9185 275273 -51508.8 159669 -71167.3 12283 -24220 
323 1 48.1832 34.8416 23.6505 7.47541 -67376.6 -473229 85885.5 93122.3 -69099.3 40672.8 
310 1 38.0551 37.4478 23.4837 26.6134 167371 -388381 494839 -88434.2 -60881.5 166378 
312 1 40.9038 37.2196 23.5227 10.2043 195980 220917 95596.8 54100.7 56876.6 89534.9 
316 1 43.7893 37.2838 23.5286 8.4714 54360.4 82519.5 59613.3 10590.8 80086.5 -112885 
320 1 46.6965 37.2746 23.5929 8.15445 112487 73968.1 44399.4 106069 -8641.23 -58743.5 
324 1 49.6073 37.31 23.5644 8.03839 101247 -147844 -75614 -169027 -32290.9 -14145.3 
329 1 36.7011 39.8792 23.4409 25.2961 9593.63 -15476.6 359834 -1880.61 81103 18004.8 
333 1 39.5273 39.7893 23.4845 7.32294 -347721 -189271 77204.3 -289683 -51003.2 -23812.9 
337 1 42.3727 39.7863 23.5137 7.90254 -203890 159664 -21716.5 153393 -31692.6 -9365.79 
341 1 45.2464 39.7871 23.58 7.8033 -170879 -209441 -228790 -60184.3 126460 -21980.8 
345 1 48.1396 39.8445 23.6152 7.97157 10612.1 -32168.1 -84043.6 -1230.89 -20688.7 -144532 
327 1 35.15 42.3563 23.4965 20.9259 255113 282901 393978 -95445.7 24519.8 66623.6 
330 1 38.0095 42.3761 23.4815 7.57132 -46169.6 -265011 286857 -128696 -34039.5 -17001.7 
334 1 40.8777 42.2898 23.535 8.30134 20270 -59334.9 -25715.2 -12221.5 -26999.6 -73472 
338 1 43.7995 42.2909 23.5149 7.86058 -239990 127700 -12886.5 97492.5 106615 -117136 
342 1 46.6145 42.2784 23.5794 8.0223 -274725 20610.7 131133 -108431 17977.4 -17753.4 
346 1 49.5384 42.321 23.6114 8.0951 13127.8 -192265 44327.9 -80802.6 -22184 10612.4 
351 1 33.7536 44.8294 23.4714 19.0701 17905.1 115381 277524 -92110.1 -23219.1 72766.8 
355 1 36.5878 44.8262 23.4839 7.76201 -131633 -310948 385706 -44523.3 -70799.9 29692.1 
359 1 39.4809 44.7974 23.495 7.79339 79000.6 26892 241757 17370 -38111.1 -49063.3 
363 1 42.3869 44.8299 23.561 7.60207 -125700 -7027.51 -129329 -47184.8 84484.7 -113241 
367 1 45.222 44.8466 23.5211 7.65968 -59884.8 -20425.7 234143 -28131.3 28449 53121.5 
371 1 48.1119 44.7845 23.6417 8.23129 -19856.7 251171 284222 87773.7 127332 10131.4 
349 1 32.3206 47.3358 23.5188 27.4853 -326518 343172 660830 -48062.8 -11750.2 48097.6 
352 1 35.0662 47.3211 23.5498 8.28022 -530655 149674 347105 -96974.7 -61051.3 19441.1 
375 1 33.6036 49.8486 23.5613 10.5362 253179 175444 236492 28062.7 -17707.5 221603 
356 1 37.933 47.2871 23.5103 7.60603 -96126.4 -71626.5 -124739 -163020 -29597.7 45393.8 
376 1 36.5365 49.8291 23.52 7.76117 84898 25872.8 97933.9 36161.3 30561.4 1320.06 
360 1 40.8759 47.3633 23.474 8.07227 -10099.4 87627.1 -49815.3 57853.1 -4788.86 46044.2 
377 1 39.3955 49.8121 23.5349 7.85703 -34426.9 72458.6 -36780.2 73313.9 -56123.8 -48542.5 
364 1 43.7242 47.3149 23.5218 8.24977 -232405 -88599.7 -147611 -56429.8 44123.1 79181.8 
378 1 42.3189 49.8578 23.5279 8.11329 105041 76926.8 -157851 -42237 53922.1 14080.8 
379 1 45.2276 49.9025 23.5334 7.60217 18728.7 129080 -228960 -89835 -89171.8 -62157.4 
368 1 46.6118 47.3351 23.5298 8.36447 209621 209852 329834 -190828 33488.9 -35828.6 
372 1 49.5045 47.3424 23.5679 7.83265 104184 -8393.03 233562 -10009.8 1221.22 -148083 
380 1 48.1022 49.8428 23.5341 8.44997 -171540 33207.8 16383 25819.8 -65892.7 -5165.8 
305 1 43.7862 33.9942 25.9537 24.0916 757388 485950 814476 -137237 79394.3 151111 
385 1 42.3463 34.846 28.2973 27.6587 788337 347299 992030 -242964 62401.7 37507.4 
307 1 46.7427 33.9788 26.0265 12.7172 567822 400490 370253 -142434 -82942.2 -4379.45 
387 1 45.2514 34.8097 28.3646 13.2868 629039 178544 711236 -22381.5 55665.7 -41074.5 