ITEM: TIMESTEP
10000
ITEM: NUMBER OF ATOMS
5538
ITEM: BOX BOUNDS pp pp pp
0.259222 99.7408
0.0641917 99.9358
-7.86407 107.864
ITEM: ATOMS id type x y z c_csym c_2[1] c_2[2] c_2[3] c_2[4] c_2[5] c_2[6] 
15 1 45.3686 34.7622 5.14997 35.3173 629088 348835 -44870.5 -60214.1 -79056.4 -274811 
2 1 46.7879 32.3727 5.31699 97.9774 406073 141483 -19836.4 29101.1 22790.2 -75227.5 
19 1 48.2288 34.7432 4.98891 32.3402 716275 384739 168482 90647 -205541 -94946.3 
8 1 41.1353 37.3729 5.02925 40.9449 100359 -13513.8 -378050 -11287.5 -110745 -183911 
12 1 43.9551 37.323 4.91906 31.1657 242557 256267 -49279.7 -23191.8 -11564.9 -125683 
16 1 46.8102 37.2661 4.89209 23.8638 405965 484646 46942.8 95601 -29929.3 -106554 
20 1 49.6829 37.2254 4.85006 24.2989 701028 633405 203817 28022.9 -99080.5 -68853.3 
29 1 39.6668 39.7842 4.87015 38.7098 481429 434613 -8563.44 -30529.9 16615 -107674 
33 1 42.5703 39.7791 4.83931 23.9556 430655 60014.7 39440.8 51915.7 -73155.2 -32566.9 
37 1 45.4545 39.7845 4.80545 24.024 204487 267753 128601 63604.4 -61761.9 -55791.5 
41 1 48.2956 39.7813 4.83729 23.9172 187885 426239 -65468.2 91601 -216704 186283 
26 1 38.2666 42.2756 4.74498 39.4353 395812 565784 128152 -189118 -30500 -34211.4 
30 1 41.1205 42.2784 4.81437 22.5964 469142 419089 -304946 -31588.7 92828.7 -129418 
34 1 44.0368 42.2841 4.77088 23.7973 415956 384932 -3640.58 -30688.8 -47157.1 -69627.4 
38 1 46.8962 42.275 4.82128 23.2841 123114 224714 -22535 -139987 24998.4 -51902.5 
42 1 49.7476 42.256 4.86665 21.7971 120823 352188 -130922 -82598.4 -32878.4 -7145.5 
51 1 36.8007 44.804 4.73468 38.5115 275292 799948 115441 -139762 -64821.9 -1332.16 
55 1 39.5991 44.7702 4.62502 23.8031 482102 601609 385328 -117833 72511.9 -92387.4 
59 1 42.5341 44.8055 4.75637 22.4335 390274 310301 -82407 -168500 15775.1 -19780.3 
63 1 45.3776 44.8116 4.78967 22.8958 162217 296548 -273730 -233646 57896.3 120.392 
67 1 48.2709 44.7585 4.83073 22.8105 203622 254085 -282854 -125875 104236 66276.9 
48 1 35.3355 47.297 4.80661 37.6816 531826 695464 1718.51 -131984 -105286 -112626 
71 1 33.9293 49.812 4.83485 42.7325 415104 485045 129459 -93036.8 -274862 -17384.9 
52 1 38.1994 47.3248 4.63939 24.2852 442038 558406 212588 63709.1 -107256 -121460 
72 1 36.7529 49.8216 4.70963 23.1417 287905 129374 -107719 200001 -33189.7 -15292.4 
56 1 41.0429 47.2934 4.62458 23.9391 131437 578628 171820 42267.8 23674.7 -39079.5 
73 1 39.6689 49.8263 4.61531 23.9788 518153 427835 -75219.8 66381.3 -92260.1 -7968.29 
60 1 43.8663 47.2907 4.65553 22.6185 415338 264033 288154 -20674.2 76199.5 7937.26 
74 1 42.5578 49.7958 4.5919 23.8188 441776 384570 201357 158814 30618.1 -85969.8 
64 1 46.8232 47.2646 4.77001 22.5895 657753 179594 13178.5 -103476 -3194.32 -96980.8 
75 1 45.4252 49.7815 4.65162 23.4437 436688 611587 298104 41985.2 -1049.64 -19052.6 
76 1 48.2837 49.7174 4.65154 23.869 441407 395798 115821 36413.7 1752.47 10073.5 
68 1 49.7412 47.2522 4.75117 23.2517 494920 108232 -13407.6 -8841.33 -90313.9 -20074.7 
4 1 48.1264 31.5433 7.58857 44.5251 -40665.5 10646.9 10365.4 93396.7 -158285 -33087.9 
11 1 41.1035 34.2006 7.36571 84.7166 53255.9 1424.78 7293.04 -477948 -117993 18893 
1 1 43.8994 33.9385 7.47709 26.79 707574 579218 359275 -42597.3 9292.49 -60897.9 
3 1 46.8029 33.9857 7.50996 10.2058 -357917 -662925 -629997 -63522.3 -211345 -391115 
5 1 49.6399 33.9556 7.30043 8.25646 1460.35 118992 306541 266562 -36682.3 -84577.3 
6 1 36.7123 36.7417 7.27638 92.9247 69060 -136008 -47519.8 -137815 -103924 122304 
10 1 39.5401 36.5557 7.21072 24.4959 517022 355403 59754.6 -90751.3 10576.8 -90551.2 
14 1 42.512 36.4683 7.2537 7.96201 -179255 -289127 -60239.8 -465689 -184336 10324.8 
18 1 45.357 36.4855 7.27953 7.84388 -380649 -187218 -181301 136880 -83971.5 -343969 
22 1 48.2101 36.4285 7.2701 7.71595 32743.4 -270956 196585 93823.7 -29057 -32082.2 
25 1 35.3502 39.0813 7.11041 41.0117 99090.5 95805.9 198189 80400.1 92683.3 56170 
7 1 38.1715 39.0429 7.15398 8.52073 -222691 -381769 -95219.1 -257666 -17175.8 -101070 
9 1 41.0876 39.0056 7.22895 7.89151 25691 -165980 -375126 -7539.58 -151465 -337031 
13 1 43.9802 38.9775 7.19037 7.89447 -202860 -322324 33856.2 90470 -230933 -162525 
17 1 46.8363 38.9385 7.19477 7.57423 -441210 -89863.8 -35197.9 76127.5 -9734.29 -134960 
21 1 49.6555 38.9754 7.1205 7.98301 -97119 206334 -214300 169397 -131450 111425 
47 1 32.5387 43.8066 7.24449 44.4028 203552 631645 126971 14103.6 133859 -14846.7 
23 1 34.0218 41.4913 7.14349 36.6731 -162960 39965.3 11454.7 -60075 23212.7 -36661.9 
24 1 35.306 43.9979 7.04634 8.78886 -163271 -193328 525787 -168633 -148916 5444.83 
28 1 36.7949 41.5363 7.09243 8.00037 -441089 -248723 179319 -256769 -212676 -17398.1 
27 1 38.1813 43.9487 7.04411 7.75067 -206995 -652769 127697 -133931 -252421 25120.5 
32 1 39.6565 41.4963 7.10029 7.69288 -343582 -516449 -383867 -187735 -145178 -148092 
31 1 41.0815 43.937 7.06077 7.79555 50994.7 -290635 54350.4 -161448 63941.8 -184529 
36 1 42.5823 41.4672 7.14385 7.6501 -263760 -284466 7486.01 -103363 -215794 -133921 
35 1 43.9703 43.9433 7.07153 7.83934 -180790 -221768 -74131.7 -237652 92055.4 17718.5 
40 1 45.414 41.4488 7.13108 7.93673 -237638 -123257 92092.5 -20916.9 20735.1 44827.6 
39 1 46.84 43.9796 7.09802 8.0554 -110529 -28651.6 -93743.8 -36839.6 112257 70520 
44 1 48.3026 41.5044 7.21258 8.01454 13784.3 -6029.61 -57400.2 -1386.43 -87416.9 114401 
43 1 49.7453 43.9823 7.13693 7.86082 -168355 -203202 -142372 -115424 -157257 4042.03 
45 1 31.2429 46.243 7.49741 98.408 25425.3 727500 109341 -82991.3 198605 -204937 
50 1 33.9144 46.4493 7.155 9.02254 -514977 192984 234032 155149 -98291.9 119034 
54 1 36.7605 46.4178 7.08416 7.4042 -317075 -315931 73371.3 9214.09 -271176 -54791.2 
58 1 39.632 46.4325 6.97925 7.44096 -131903 -522.212 268063 52253.2 3186.96 37518.2 
62 1 42.4827 46.4848 7.04246 8.00744 -228574 92096.1 65204.6 -86296.3 32585.5 -94648.2 
66 1 45.3312 46.4532 7.09532 8.16883 43359 -97094.7 32907.1 54642.7 121873 -198408 
70 1 48.2799 46.4704 7.12226 8.08184 147479 -103000 -80953.9 67904.5 -43017.3 -109536 
46 1 32.5124 48.9068 7.15999 22.881 200334 640447 61042.9 214974 -298068 -223903 
49 1 35.3753 48.9463 7.06653 7.29912 -291904 -449235 -518410 -5352.6 -246075 -69181.4 
53 1 38.2524 48.938 6.97662 7.54425 -370601 -89933.7 58258.6 127282 -141208 -43963.9 
57 1 41.0579 48.9909 6.93739 8.15029 -346103 53540.9 100361 123740 -118786 -54244.8 
61 1 43.9544 48.9634 7.02447 7.87266 198910 14596.9 333714 56490.2 38696.9 -8581.1 
65 1 46.8786 48.9597 7.03617 7.7681 44714.3 -78296.2 -24100.4 15299.8 -65745.2 -140045 
69 1 49.7584 48.9792 7.02399 7.51439 -18765.5 -47233.6 -53368.4 32938.6 54921.9 -134236 
80 1 49.554 32.3709 9.80437 18.5374 248113 32943 -100942 119243 -10576.2 -370427 
87 1 42.4188 34.7891 9.67324 16.995 404610 298888 98119.9 -35144.9 24363.6 -275403 
77 1 43.9199 34.1019 12.0593 24.9425 172587 273038 225300 -187559 94729.1 11179.2 
78 1 46.7454 32.4728 9.87825 26.6524 320425 -214498 -42292.3 -92453.3 -14333.3 -93194.1 
91 1 45.3209 34.9279 9.76864 10.0285 45213 -719980 -288033 198632 187293 -208955 
79 1 46.7796 34.0384 12.1264 12.5786 193605 50205.8 -493829 -96433.9 28421.9 -399864 
95 1 48.2203 34.8736 9.71159 7.84658 -206284 -423325 -409869 -18291.9 -361634 -148595 
81 1 49.7198 34.0782 12.0469 11.8804 185642 -150508 -43533.5 -35093 -121409 -68321.9 
82 1 38.1205 37.3678 9.53152 16.3294 94102.4 61044.5 179369 -125540 49752.5 -148416 
84 1 40.9628 37.2921 9.5422 9.46484 275271 399423 144216 -41935.3 -35261.6 69490.1 
86 1 39.5138 36.5237 11.9073 26.6309 498166 546980 696186 -197030 -155385 31610.8 
88 1 43.8989 37.3062 9.63588 7.9002 124764 -211170 -86220.2 322240 15267.4 -185854 
90 1 42.3944 36.4989 11.954 10.576 195135 106926 -190567 -112071 55060.9 -237553 
92 1 46.8224 37.3655 9.65016 7.80454 -105242 -479982 -50703.9 16173.1 32149.7 -16202.5 
94 1 45.3623 36.575 12.0191 7.29809 26195.6 -382066 -665518 -81958.1 -52814.8 -316283 
96 1 49.6973 37.3905 9.58104 7.83907 -251341 -206584 92313.1 59413.4 -67966.8 -62529 
98 1 48.2841 36.5312 11.9963 7.75962 -121380 -127705 -514674 14680.9 -211502 -148493 
101 1 36.7204 39.8847 9.45667 12.384 -120681 368381 425560 -107584 226917 110035 
83 1 37.9846 38.9762 11.909 13.3776 442251 471013 476319 -78690.1 24648.8 -198384 
105 1 39.5164 39.8322 9.51296 7.78935 -243116 -116563 -98006.1 -80749 -243437 -173498 
85 1 40.9468 39.0229 11.8432 8.03425 228998 147544 -133408 160553 100425 18248.8 
109 1 42.4678 39.8196 9.59318 8.21687 26908.8 702.322 -331291 -61733 -121259 -11032.5 
89 1 43.8487 38.9918 11.9031 8.02004 -20831.9 -84225.5 -489156 166274 -123827 -149809 
113 1 45.3618 39.8121 9.53318 8.15656 -181691 -33276.2 7720.34 129661 -91380.7 -53424.6 
93 1 46.7675 39.0392 11.9489 7.67643 -6007.93 -190215 -401481 -107635 -22704.9 -185743 
117 1 48.2139 39.84 9.53809 8.03771 -75874.5 -122201 41792.6 -80691.1 -144061 118670 
97 1 49.6819 39.0728 11.8848 7.85268 -76180.2 -48144.6 -86096.9 -65871.8 -50384.9 -63890.9 
99 1 35.2564 42.3958 9.45498 12.6685 345659 330294 544085 -336695 49309.7 29165.4 
100 1 35.261 44.0819 11.86 13.2525 -36237.1 164903 195570 -183550 -21739.1 66507.8 
102 1 38.1316 42.3534 9.45206 7.58008 -328880 -340210 -135660 -34278.6 -121598 -22532.7 
104 1 36.7104 41.5575 11.8465 13.1818 -287496 344442 567183 -246587 -18242.7 -58430.3 
103 1 38.131 44.0355 11.7888 7.9976 -112734 -80343.3 -198547 -91613.3 -113285 -7158.04 
106 1 40.9698 42.3155 9.463 7.39563 -72344.2 109036 20222.5 -118292 -204645 -75077 
108 1 39.4937 41.4751 11.8451 7.69275 -196917 82938.4 -112765 272347 -49636.9 -68679.1 
107 1 41.0264 44.0106 11.798 8.10955 -104960 -27142.4 -56147.9 140251 5395.71 -84067.8 
110 1 43.8919 42.286 9.49848 7.51439 -44911.5 -71304.4 -242239 -124160 -178180 -100816 
111 1 43.9001 43.9857 11.8114 8.06956 -419626 -207136 -67423.2 36503.8 106699 -276.064 
112 1 42.4278 41.5453 11.8516 7.51041 -162668 -236446 -456919 13679 50334.3 -245202 
114 1 46.7771 42.3808 9.5563 7.88979 97545.5 -147090 35255.9 56733.7 -4532.14 -1186.46 
115 1 46.726 44.0246 11.894 7.91149 -155297 -162533 -198660 98116 -89785.7 -156658 
116 1 45.3107 41.5234 11.8687 7.99928 -215847 -165070 -78375.2 167830 76794.4 -34454.9 
118 1 49.7157 42.3394 9.51443 8.09357 -1201.97 -87994.8 -215310 79968.1 -227032 -76124.7 
120 1 48.1963 41.5635 11.9015 7.7885 -102879 -54476.1 -193114 17765 -143135 -73931.9 
119 1 49.702 44.003 11.8538 7.99844 -82794.6 -299858 -258661 23357.4 -167492 -41115.6 
123 1 33.7801 44.9038 9.5024 12.6422 659775 396762 516452 -119014 113021 174690 
126 1 33.8566 46.5654 11.8889 13.2946 -260274 179688 -293279 -195171 -291250 82095.5 
127 1 36.6817 44.8239 9.46901 7.83037 22750.3 -147416 90635.3 -33568.4 -84910.5 201795 
130 1 36.6953 46.5647 11.8083 7.74744 -245365 -43190.9 -119397 -93311.7 -170711 132989 
131 1 39.554 44.8517 9.43649 7.79215 -94137 -354141 211012 -20043.3 -264.678 53669.4 
134 1 39.5794 46.5256 11.8055 7.97203 -104708 -243688 -135064 -81551.8 -97126.9 107376 
135 1 42.4572 44.8181 9.42256 8.08026 87657.8 131073 148492 -58376 -55048 -984.352 
138 1 42.4679 46.5062 11.7888 8.06562 -47090.8 12844.9 71148.2 -26031.5 4276.08 -16239.7 
139 1 45.3418 44.8159 9.49571 7.98738 -22052.4 -218536 -21812.4 93503.9 -1354.02 53643.7 
142 1 45.3515 46.5426 11.7833 7.52195 -153117 -199675 -71089.3 110202 -50256.3 -116850 
143 1 48.2522 44.823 9.52189 8.19359 221774 -155632 138290 -9559.76 -93943.5 -31436.9 
146 1 48.2582 46.5076 11.8186 7.72431 -86338.1 -174343 -189362 14735.6 -85595.3 -159153 
122 1 32.4247 49.1814 11.8342 25.9924 -69563.1 674644 442723 -200639 -142957 -196962 
121 1 32.4984 47.4313 9.62632 16.9565 -43260.1 -119136 73175.8 27820 -282001 155484 
124 1 35.342 47.3917 9.46296 7.32639 -34193.5 69247.5 -107962 7912.78 -149871 35306.4 
147 1 33.8287 49.9067 9.36712 9.26716 191715 -124727 -203300 -216582 -135622 233504 
125 1 35.205 49.0791 11.7709 7.3938 7409.82 136074 207985 -107037 -7416.02 -112272 
128 1 38.2106 47.3236 9.39268 7.94993 -488590 35480.6 155282 193958 -112971 -53519.5 
148 1 36.7546 49.8677 9.37362 7.91677 101115 -237155 -179056 -220421 -203338 149830 
129 1 38.1528 49.0207 11.7335 8.0899 56657.3 -61210.3 153702 25560.1 -140211 -114116 
132 1 40.9945 47.318 9.38652 7.70847 -456557 -176715 179492 -182884 46448.8 -210520 
149 1 39.6348 49.8802 9.30733 7.62649 -331238 -171274 245643 27120.9 -91309.6 59652.8 
133 1 41.0171 48.9863 11.6922 7.98851 71.24 -135869 -49796.4 -78481.5 77339.4 -96518.1 
136 1 43.8995 47.3171 9.41953 7.77513 -100894 -234719 -257811 73799 10880.7 -111499 
150 1 42.4526 49.7748 9.34137 7.70221 -296967 -112587 92933.8 18798.9 79040.6 -75100 
137 1 43.9517 48.9995 11.7099 7.65139 59993.9 -107601 -16678 47797.1 89471.1 -89431.6 
140 1 46.7898 47.3007 9.42683 7.86834 60960.3 -106805 -111660 33819.3 93982 -55172.8 
151 1 45.3886 49.7999 9.4034 8.11574 108046 -131515 -21384 18399.9 56127.9 108329 
141 1 46.8415 48.9897 11.754 7.78178 -73805.3 -51543.9 71601.8 -90395.7 -132899 -118611 
152 1 48.3092 49.7903 9.35109 8.06945 -34074.9 -149178 -51710.5 106337 -28978.8 -82277.8 
144 1 49.7363 47.2994 9.42735 8.11924 102766 -114477 29374.5 38217.8 -91450.7 -115357 
145 1 49.729 48.9718 11.7593 7.95101 -294172 -254299 86949.4 59715 -68442.9 -64509.1 
163 1 42.4555 34.8325 14.3485 27.7359 411451 -41567.9 159209 -156609 96749.4 -302119 
154 1 46.8935 32.4914 14.4746 38.354 596055 91545.8 325104 -56566.4 10518.3 -10529.4 
167 1 45.3381 34.8734 14.3755 10.3644 47505.6 -243560 -491185 14262.5 155659 -188699 
156 1 49.6935 32.4467 14.324 29.9573 631331 327794 264679 22499.7 13575.7 57086.6 
171 1 48.2445 34.9481 14.3707 7.93964 -100385 -568009 -548268 -108708 -69529.4 -94452.7 
158 1 38.138 37.3662 14.3353 27.9629 85834.6 296767 546724 -96037.4 -133812 27964.4 
160 1 40.9402 37.2974 14.2272 10.5661 -154588 218841 68899.8 24853.9 99479.5 -120920 
164 1 43.8057 37.2964 14.2744 7.46979 -225548 -212985 -374677 -19878.8 62663.9 -2463.68 
168 1 46.7689 37.3756 14.3204 8.12928 41957.2 -571709 -374885 98410.1 -154441 -138311 
172 1 49.7156 37.3991 14.2358 8.04725 -166306 -448495 -175074 139347 -189190 -93005.8 
177 1 36.7183 39.8906 14.2518 20.153 80298.8 599782 274803 -104232 84950.7 -125062 
181 1 39.5278 39.8298 14.2045 7.98823 -77062.8 43438.9 130311 -78746.2 22575.5 -103590 
185 1 42.4336 39.8127 14.223 7.83927 -124181 -67015.9 -17501.2 123534 112856 -48714.3 
189 1 45.3008 39.7931 14.2537 7.51298 -180569 37629.9 -142627 209308 -36920.4 -61419.3 
193 1 48.2205 39.8293 14.2483 7.70111 -35999 -196132 -60168 1716.03 -82878.8 -25003.2 
175 1 35.3089 42.483 14.2117 19.6233 34411.1 266292 389847 -181608 -13310.7 124808 
178 1 38.1189 42.4039 14.202 7.41184 -275788 5928.11 -162437 -14512.7 -115283 -106542 
182 1 40.9945 42.3116 14.1666 7.93314 -360722 60045 -121887 13656.1 50309.7 -36802.4 
186 1 43.834 42.304 14.183 7.71325 -182995 -16583.8 -243567 -33876 -30470.8 -121861 
190 1 46.7702 42.3139 14.2556 7.80559 9444.39 221229 102337 77782.9 9178.89 -98151.4 
194 1 49.6089 42.369 14.2073 7.53639 -169596 -282943 -123249 -9294.24 -168157 -114128 
199 1 33.8558 44.9527 14.217 20.251 23810.4 94760.7 2247.11 -114706 -50252.7 118029 
203 1 36.6915 44.9392 14.1607 7.54302 -306969 -554495 -83472.7 -172001 -180235 -42781.5 
207 1 39.568 44.8702 14.1218 7.99311 -195243 -199347 -134788 -119439 -50276.1 -60026.3 
211 1 42.4322 44.8226 14.1551 8.18871 -271615 -46389.1 -7153.92 -13504 -60171.2 -58271.8 
215 1 45.2946 44.8458 14.229 7.87141 -96380.1 -82222.9 -197339 -10194.1 88534.8 -212644 
219 1 48.2121 44.8416 14.1855 8.16344 -242617 -371556 -91523.6 118945 -66099.7 -31124 
197 1 32.425 47.4759 14.1467 26.8473 50958.6 248507 461835 -71835.8 55884.4 -53717.9 
223 1 33.8167 49.9156 14.1613 10.6614 -95878.9 -251122 125249 -70467.1 -59199.2 -150431 
200 1 35.2522 47.4106 14.183 7.70292 -449748 -401588 -123631 -119482 -178408 -164968 
224 1 36.7381 49.8359 14.1241 7.5615 -142760 -387603 46032.9 86635 -79685 59831.6 
204 1 38.1106 47.3695 14.1828 8.27017 -343321 -518616 1858.76 -27921.6 -108014 -86731.3 
208 1 41.0068 47.3424 14.1553 8.21105 -293407 -369654 -12727.1 -114429 -49580.4 -164173 
225 1 39.5995 49.8317 14.0694 8.00683 -318997 -162400 15145.8 73099.6 -118138 104586 
226 1 42.4457 49.7845 14.087 7.69884 -202778 -231346 245458 -17356.3 -6602.19 -38298.2 
212 1 43.8631 47.3245 14.1504 7.71266 -264665 -271433 -14423.3 75732.7 -66016.9 -151014 
227 1 45.3521 49.7993 14.1291 8.04462 -215121 -317431 -19462.6 -7136.33 -10050.1 8310.26 
216 1 46.7565 47.2916 14.1625 7.53068 -252976 -247696 -142470 55302.1 -107271 -76102.5 
220 1 49.6325 47.3239 14.1509 7.82829 -92484.7 -259779 -139333 16597.7 -45073.7 -112383 
228 1 48.217 49.8109 14.119 7.60327 -232682 -195044 -179631 195545 -185924 -53050.2 
153 1 43.9154 34.0853 16.6829 26.4235 320446 50618.2 410135 -119311 125993 52836.1 
155 1 46.821 34.1192 16.7436 13.276 252793 69570.2 -85371.9 -219675 20334.6 -36418.8 
157 1 49.7137 34.0321 16.6702 11.9979 381642 390575 252508 -66183.3 -73890.4 182082 
162 1 39.5247 36.634 16.6499 25.5046 222415 99000.4 489782 -176591 -185548 86437.4 
166 1 42.3982 36.4467 16.5919 10.2691 8885.92 14959 -16584.1 -89368.7 13366.6 -147956 
170 1 45.2551 36.5734 16.6601 7.8289 -11387.6 -291911 -271935 34649.9 -47376.1 -110784 
174 1 48.24 36.5868 16.6704 7.93391 189740 -31826.9 -127403 -211516 -199309 -289285 
159 1 38.0414 39.0404 16.6487 12.9711 161588 59352.2 264435 -68601.4 -96851.4 -145524 
161 1 40.9922 39.0213 16.6024 7.94342 -76970.6 38344.2 247621 -249849 -6473.95 -19882.6 
165 1 43.8054 39.0081 16.6283 8.09903 -323320 -261854 -74936.9 88108.3 8629.68 95187.1 
169 1 46.7233 39.057 16.6073 7.5287 19298.8 -248946 -363677 9852.66 -127398 -84721.1 
173 1 49.6549 39.0671 16.632 8.04877 68446.3 -165854 139817 18934.8 -102557 -3250.59 
176 1 35.1645 44.1415 16.5842 12.2716 68949.6 178491 304573 -277098 -165054 97180 
180 1 36.6382 41.5435 16.5961 13.0924 -81519.1 282787 96606 -231112 -55164.9 -123552 
179 1 38.0508 44.0364 16.5356 7.82684 120701 -190614 149706 -23214.4 -170961 -145299 
184 1 39.4823 41.5086 16.524 7.73615 -50033.7 48333.7 48653 52366.5 -22822.1 43022.6 
183 1 40.9583 44.0169 16.5338 8.10034 -38757.8 -210892 199094 171002 59865.8 3676.82 
188 1 42.3759 41.539 16.5599 8.00445 -305433 -244653 210200 -52332.8 -6491.57 84860.9 
187 1 43.8417 43.9648 16.5454 7.76921 -71218.9 -408407 -15780.5 -10169.9 102003 15305.6 
192 1 45.2063 41.48 16.6181 7.47355 63443.1 -173025 247104 273602 54319.5 -6139.98 
191 1 46.7565 44.0324 16.5669 8.19656 175890 12591.1 151858 203800 -94498.5 -42783.3 
196 1 48.1895 41.5228 16.6442 7.95697 172439 -131349 -168681 72725.8 25603.8 -52000.2 
195 1 49.6775 44.014 16.5459 7.78158 -63280.7 -349820 -131520 -111453 -68617.6 19028.3 
202 1 33.7337 46.618 16.5427 12.7149 48095.3 -4960.88 369119 25843.5 11113.7 -114010 
206 1 36.6421 46.5301 16.5527 7.74929 -14702.2 -333166 -79740.4 -34880 -62540.4 -80449.4 
210 1 39.5308 46.4733 16.5001 7.77179 -13266.8 -181127 -109741 11394.8 -51723.9 131897 
214 1 42.4265 46.4817 16.5221 7.95071 -8629.18 14228 56479.6 -8131.77 -20173.2 -14270.2 
218 1 45.3041 46.4559 16.5326 7.91281 -141866 -236181 -46896 110739 -1931.99 -184298 
222 1 48.172 46.5335 16.5226 7.86235 -172369 -34836.8 -123328 114926 -113206 -59027.8 
198 1 32.4204 49.092 16.5237 25.4897 56446 241879 685980 -34271.7 55049.5 13869.8 
201 1 35.2576 49.0527 16.5338 8.24398 -164793 -69477.3 287985 -43961.6 -69372.9 -19090.9 
205 1 38.0985 49.0435 16.5084 7.86489 -220598 -107741 53445.7 30519.2 -179517 -95906 
209 1 40.9858 49.0044 16.4725 7.87447 85563.6 -99616 3243.94 8518.91 32486.5 -65042.4 
213 1 43.9092 48.9954 16.4745 7.83105 -118806 -200537 8461.19 5667.14 -57490.9 -106365 
217 1 46.7629 48.9771 16.4833 7.96449 -158891 -211375 -103137 193915 -38397.6 -26825.8 
221 1 49.6756 49.0662 16.451 7.56916 -86343.2 192878 -169043 115796 -109949 -181.915 
239 1 42.489 34.8468 19.0006 27.7272 443307 493200 652733 -168756 22429.8 10110.7 
229 1 43.8698 34.05 21.3502 26.7651 415222 433899 623279 -262963 -75242.9 21796.3 
230 1 46.8466 32.5236 19.0444 37.2394 677405 -14642.9 263499 -179231 -370.612 -4075.05 
243 1 45.3289 34.9562 19.0497 10.0747 252667 -287571 -75596.9 -142882 71987.5 -128734 
231 1 46.7269 34.0034 21.4033 12.5356 308103 233509 76223.6 -136214 -118243 -162583 
232 1 49.6772 32.397 18.9192 31.0921 487633 350358 343034 31320.1 26861.5 212880 
247 1 48.2652 34.8977 19.0919 7.95404 29650.1 -425253 -315752 -297138 -296146 -100358 
233 1 49.6482 34.0147 21.3449 11.9388 116331 150682 236529 -11094.6 -187685 311256 
234 1 38.0614 37.3987 19.0232 30.277 479752 419664 703012 -70500.7 1340.56 -21538.6 
236 1 40.9346 37.3755 19.0251 10.7901 281447 223955 332973 -171084 -188564 -47787.1 
238 1 39.465 36.5813 21.3911 27.9904 414558 365566 449439 -94976.9 94883.2 -125010 
240 1 43.7768 37.3923 18.9759 7.54586 -60954.7 -204622 -48946.9 5355.26 142545 -70250.5 
242 1 42.3639 36.5421 21.3662 10.3763 307109 326515 89313.8 -154623 10909.5 114013 
244 1 46.7067 37.4113 18.9772 8.04528 137062 -569136 69553.2 -259527 -25242.6 -110370 
246 1 45.2838 36.5187 21.3874 7.48293 287430 46880.8 -121561 26712 -22545.7 -320807 
248 1 49.6545 37.3623 18.9903 7.94096 56784.3 -139044 -153933 -107970 -142485 -73901.5 
250 1 48.1978 36.5241 21.3834 7.83164 -39745.1 -51743 -417434 -51372 11357.4 -210922 
253 1 36.6579 39.9311 18.9637 20.5726 16118.4 19555.5 75767.1 -273818 106654 -109260 
235 1 38.0458 39.0636 21.3545 12.8695 -39922.3 61859.2 139723 -223993 4763.39 22546.9 
257 1 39.4937 39.8785 18.9471 8.16016 -229202 -82455 37489.5 86429.2 -116185 -135291 
237 1 40.9204 39.0552 21.3381 8.09378 118658 -109042 -73091.8 6566.24 -4397.52 -46065.9 
261 1 42.3648 39.8762 18.9625 7.93627 -25753.8 -52463.7 -70775.5 72672.9 -15774.7 -163982 
241 1 43.8556 39.0161 21.3145 7.80484 293536 92999.8 -5471.68 5908.83 73791.5 -10017 
265 1 45.2812 39.8433 18.9997 7.98602 -298986 -271184 -255852 80460.7 34279.5 34941.2 
245 1 46.7667 39.0588 21.3192 7.5318 18995.2 187408 -328893 -55457.7 19590.6 86314.7 
269 1 48.1239 39.8416 18.9787 7.50387 -97188.9 -339621 -251942 -36990.3 106773 73529.5 
249 1 49.6466 39.0263 21.3552 7.97709 -110755 -146816 29315.5 -48602.8 -99538.1 -16722.2 
251 1 35.231 42.4532 18.8761 19.331 46057 276452 295549 -158019 85991.3 38959.3 
252 1 35.1148 44.0722 21.3012 12.8498 137667 510764 335060 -211154 -38772.6 27498.8 
254 1 38.0545 42.3324 18.9175 7.88697 -461007 -207920 -73116.8 -92494.4 -159348 -3782.35 
256 1 36.5782 41.5496 21.2764 12.9278 7274.31 269728 203663 -203650 29183.4 -200395 
255 1 37.9976 44.0486 21.2773 7.88518 82415.4 11069.7 -77865.5 146522 -215921 79596.4 
258 1 40.9183 42.3912 18.9485 8.08912 76175 -163759 132653 -18305.1 54003.8 -63882.5 
260 1 39.4422 41.5264 21.2826 7.80144 -26490.4 -196886 -200465 12231.2 71026.5 -63651.5 
259 1 40.9061 44.0338 21.2576 7.8877 225801 185806 -29335 -59265.5 12365 -131361 
262 1 43.8524 42.385 18.9756 7.72883 181570 -264018 -42551 111488 -10325.4 93660.8 
264 1 42.3717 41.5112 21.3128 7.97567 268377 93064.3 17130.7 -42915.1 70221.1 -88772.4 
263 1 43.8074 44.0791 21.341 7.67056 44344.1 -196712 -242812 83042 34071.3 2234.92 
266 1 46.7999 42.3208 18.9536 7.75368 -47220 -57391.6 -102053 201094 202522 -35385.4 
268 1 45.2864 41.5753 21.2771 7.95998 268758 130611 -114107 -60817.1 -95545.3 -4076.85 
267 1 46.7627 44.0243 21.3088 7.98713 35868.6 -87366.7 -167689 -12520.6 48483.4 61623.5 
270 1 49.6717 42.3821 18.9354 7.8606 -118433 60812.6 -191180 -10723.8 53282.8 -28926.1 
272 1 48.2521 41.5511 21.3028 7.37712 -295431 -221026 -169555 -78051.4 -65883.9 -23508.7 
271 1 49.627 44.0393 21.3114 8.03926 -400132 -324412 12963 -149885 -64912.8 75155.8 
275 1 33.7593 44.9647 18.9527 20.1807 249961 320877 303871 -154258 -13317.7 -93248.8 
278 1 33.6628 46.6198 21.2706 12.2808 222647 287878 386370 -70703 -7706.52 -174970 
279 1 36.6294 44.9026 18.9644 7.74475 -110723 -219052 -42771.5 -153192 -172680 44663.1 
282 1 36.5968 46.5537 21.3097 8.10629 46586.5 40266.8 -120017 98676.2 -45201.3 -95431 
283 1 39.5023 44.8822 18.8621 8.06462 73573 -127803 35913.1 180463 -66962.6 33629.2 
286 1 39.4415 46.5864 21.2382 7.60272 -42813.2 81811.1 25405.1 19112.6 -132270 73752.8 
287 1 42.4415 44.8266 18.9103 7.64755 -130929 -147083 178211 56465.8 9334.43 54065.8 
290 1 42.3826 46.5292 21.3054 8.13898 74494.6 -204655 -1740.43 76942.4 -64275.9 78041.3 
291 1 45.2788 44.8339 18.9567 8.02386 -158545 1813.95 184081 -127347 18631.9 -25665.3 
294 1 45.27 46.5113 21.2828 8.04852 35809.4 -180381 -125156 44719.8 -475.644 -55602.8 
295 1 48.1723 44.8759 18.9426 8.13564 52584.8 -73209.3 146752 -43661.9 -16003.9 -72837.8 
298 1 48.192 46.5712 21.258 7.79517 36715.1 90977.6 3115.03 86670.2 -26002.9 -88391.1 
274 1 32.3548 49.0966 21.2646 26.7854 -110733 407630 467318 28890.2 -36073.7 -2672.2 
273 1 32.3477 47.46 18.8763 29.4303 215572 362658 501039 22815.8 19905.8 19721.7 
276 1 35.1975 47.4079 18.9237 8.12718 11865.7 -26099.6 147091 -29433.8 -9240.45 -10416.3 
277 1 35.1682 49.0871 21.2605 8.01791 -308219 92314.5 -297544 130086 -90025.1 -88982.9 
299 1 33.7774 49.93 18.9467 10.6173 97986.8 87264.2 59379.1 72027.4 -92419.2 113679 
300 1 36.6986 49.8892 18.9248 7.94243 -1678.19 -80493.8 -63349.2 162988 -111033 25868.8 
280 1 38.0773 47.3478 18.8887 8.0977 -130504 -167648 75636.7 29181.2 -244790 56098.7 
281 1 38.0519 49.0924 21.2601 7.64188 -287049 -188671 -135159 78900.4 -157603 61821.5 
301 1 39.5662 49.8426 18.8483 7.63176 -186613 19715 43425.1 56423.3 -58036 -87792.2 
284 1 40.9804 47.3646 18.8704 7.9624 -900.503 29974.5 330054 5383.66 47193.2 -10741.6 
285 1 40.9292 49.0241 21.2699 8.002 41005.6 -83838.2 52479.7 -43888.1 33714.3 -37617.9 
288 1 43.8403 47.3368 18.8986 8.07575 -76709.7 -64674.5 88358.2 -1776.21 -66975.9 -193286 
302 1 42.424 49.8562 18.8681 8.11631 -222353 -302119 14087.3 61485.4 -121644 -1512.36 
289 1 43.8672 49.0005 21.1905 7.99044 79144.2 -213467 -49959 41298.4 -50410.4 -81858.7 
303 1 45.2935 49.8588 18.8204 7.82061 -232462 -199671 -92802.5 7734.79 4559.55 -24293.8 
292 1 46.7321 47.3574 18.8954 8.02999 -91716.7 -48666.8 94512.3 54874.6 -32608.2 -22831.5 
293 1 46.7618 49.0535 21.2263 7.72399 -17533.5 -96566.1 -231708 104812 14479.3 -108499 
304 1 48.1589 49.8586 18.8578 7.56127 -109423 -130375 82572.5 -70376.5 -35369.7 15510.6 
296 1 49.5969 47.3549 18.8574 7.9925 -217971 -9089.84 82796.5 -74180.6 52122.4 -162936 
297 1 49.6835 49.0688 21.1785 7.62548 -130429 75984 46848.9 -150690 -78373.7 -91692.2 
315 1 42.3972 34.9098 23.6851 26.2152 417059 224650 673531 -132784 28892.1 -29161.8 
306 1 46.7288 32.4432 23.7636 51.9666 447726 221855 358651 -62139.6 44937.3 -9463.2 
319 1 45.2047 34.8436 23.7472 9.75685 226545 114994 10728.1 22334.1 16342.2 -44185.7 
308 1 49.5095 32.4387 23.6711 30.6534 247414 -31697.1 80461.8 113561 15060.5 -67367.9 
323 1 48.1405 34.8929 23.698 7.78491 -36880.7 -559076 -358193 -38890 -175765 -111702 
310 1 38.171 37.4801 23.7003 26.0209 -349684 -390298 84584 -123083 82355.3 2016.44 
312 1 40.9434 37.3946 23.691 10.6813 -365649 -176959 -136758 -55831.9 67996.8 -54752 
316 1 43.8398 37.3874 23.7187 8.00849 -111125 22836.8 -173691 68335.6 63705.9 -71910.6 
320 1 46.7049 37.4138 23.6788 7.49225 -223841 115750 -232800 67748.9 -95037.4 -49371.6 
324 1 49.5662 37.3867 23.6953 7.71532 -203725 -291065 -201958 -80782.3 -31870.2 25786.4 
329 1 36.6835 39.9113 23.6967 19.9081 -157673 26979.7 287422 -92065.7 108550 -152254 
333 1 39.4851 39.8942 23.697 8.01922 -511831 -650427 -187695 -147793 -110856 -259463 
337 1 42.3684 39.8695 23.6994 8.28767 35694.5 -49690.6 33935 -47365.6 -38095.4 -40709.5 
341 1 45.276 39.9291 23.6882 7.96638 25978.2 -52008.1 168605 -26390.8 40512.1 -38039.8 
345 1 48.1467 39.9252 23.6999 7.56036 -111439 -171874 -85087.2 59257.9 63600 22340.5 
327 1 35.2082 42.3909 23.6384 19.9712 107164 289026 284129 -125094 15997.6 -17358 
330 1 38.0425 42.3657 23.6091 7.94981 -188792 -243054 -47523.1 9382.91 -65868.7 -13048.5 
334 1 40.9465 42.3945 23.6405 8.05775 -70068.7 -132269 -253563 -4596 18100 -98525.2 
338 1 43.8207 42.4069 23.6691 8.21978 -8818.56 -93244.8 -264397 9802.05 55127.2 138804 
342 1 46.7559 42.3836 23.6397 8.04205 -80428.9 -362528 39338 108307 10150.7 107833 
346 1 49.6191 42.4363 23.6709 7.77081 -120124 -146518 -262942 -144666 -50912 81635.6 
351 1 33.7159 44.8836 23.6606 21.1019 233571 542100 280128 -156312 -23820.3 -138618 
355 1 36.5708 44.8794 23.6452 8.28588 -2975.59 -33790.5 50176.7 16763.2 -79615.2 51471.1 
359 1 39.467 44.8934 23.6028 8.13677 -50102.6 -139241 -24576.1 -81421.5 -7404.95 -158021 
363 1 42.3508 44.8994 23.6326 7.96615 204.218 -308027 -304646 16832.2 149417 82207.7 
367 1 45.3203 44.874 23.6437 7.78265 -203554 -202636 -334944 9330.36 -58403.3 -92712 
371 1 48.143 44.9228 23.675 7.83776 -215662 -231323 -244397 -64455 38656.3 -9336.63 
349 1 32.3244 47.4603 23.6339 28.8711 -28871.4 266923 490627 -169512 25322.1 -19797.5 
352 1 35.1317 47.3718 23.6383 8.05072 -199693 -24699.3 72402.3 103579 -16658.9 -86167.2 
375 1 33.7341 49.8726 23.5924 10.1879 -227208 -140062 118648 82983.6 28594.6 -47651.3 
356 1 38.027 47.406 23.6347 8.04705 -147822 -43042.4 -55551.9 82794.7 -160554 -92010.8 
376 1 36.6034 49.8865 23.5946 7.93832 -59080.8 -188448 8171.6 168774 -5964.43 -141263 
377 1 39.5296 49.8828 23.5848 7.81586 -2498.13 -280827 -62370 92342.2 39745.5 -86646.5 
360 1 40.8844 47.3569 23.6333 7.86085 -68303.3 -155005 -12732.7 55402 78396 86437.4 
378 1 42.4428 49.8697 23.5884 7.91834 -12960.7 62287.9 -49109.2 174911 -135602 46575.3 
364 1 43.8306 47.3627 23.6114 8.08684 -69571 -160535 -378921 19194.3 -95214.6 -145691 
379 1 45.3083 49.8622 23.568 8.13293 -407585 -150593 -178176 168603 -16316.4 104789 
368 1 46.7121 47.4017 23.6119 8.12115 -187997 -405379 -275835 99992.2 20566.2 -79482.8 
380 1 48.1584 49.9133 23.5277 8.17571 -219125 -156157 -232216 -89466.8 -150150 -33469.8 
372 1 49.6091 47.3858 23.6445 8.11976 78561.1 131377 -88323.5 -154276 -52637.3 -173365 
305 1 43.8488 34.0894 26.119 23.1962 51364.9 -41864.9 271874 -194571 -66433.2 -57774.1 