ITEM: TIMESTEP
30000
ITEM: NUMBER OF ATOMS
5538
ITEM: BOX BOUNDS pp pp pp
0.259222 99.7408
0.0641917 99.9358
-7.97968 107.98
ITEM: ATOMS id type x y z c_csym c_2[1] c_2[2] c_2[3] c_2[4] c_2[5] c_2[6] 
15 1 45.3345 34.8454 4.72678 39.1649 205441 268912 68607.3 -104533 -46524.2 78180.2 
2 1 46.7722 32.4948 4.86613 99.1554 329367 -84335 148452 -54532.5 145716 -64706.2 
19 1 48.1614 34.8619 4.72919 31.0275 217013 -67469.3 -96196.4 121706 -148265 -20293.8 
8 1 40.8281 37.32 4.8585 40.5823 740293 713015 -131489 -108729 -12182.9 -200631 
12 1 43.8346 37.3483 4.68881 31.1047 1.24098e+06 765377 345653 -98094 21932.7 -28911 
16 1 46.7748 37.3045 4.69139 22.4064 552570 123508 -72471.4 22661.7 -105752 -30575.4 
20 1 49.685 37.3316 4.65096 22.9089 382119 447651 181448 -138908 -88242.4 -26608.5 
29 1 39.4477 39.858 4.68812 40.0252 538010 757135 261503 -212277 -15395.8 -34899 
33 1 42.3091 39.7729 4.68833 22.6115 922916 900828 366817 -2185.57 -14351.5 12179.4 
37 1 45.3066 39.8463 4.71195 22.4422 208907 397985 -258397 73617.9 -2418.56 -35443.4 
41 1 48.0833 39.8304 4.59073 22.9902 313761 573672 282138 -200884 71045.2 34362.1 
26 1 38.0399 42.3803 4.68694 38.4463 16090.7 409999 123450 -207836 57026.3 56405.8 
30 1 40.8386 42.3482 4.68004 23.3753 383302 429307 1079.14 -95328.6 116419 -28976.6 
34 1 43.8105 42.2814 4.7108 22.9169 745577 702994 87112.4 163486 -76285.7 -5679.84 
38 1 46.6944 42.3717 4.67318 23.7239 359539 333363 -16016.5 -71067.5 17697.8 39295.1 
42 1 49.5773 42.3021 4.68087 22.6317 655391 681889 -14581.8 -90978.6 22857.8 155997 
51 1 36.5908 44.8305 4.73323 35.2465 429157 755785 6155.33 -25671.1 6166.12 -186327 
55 1 39.4363 44.8171 4.61566 23.7365 568251 388218 60763.6 -62763.6 -65472 -179651 
59 1 42.3641 44.7975 4.63362 23.9515 710973 713278 319465 -136890 112092 -6655.79 
63 1 45.245 44.8569 4.69045 23.6496 490401 497778 258642 147558 -42058.6 -418.103 
67 1 48.1289 44.8526 4.75083 22.742 480216 382219 -18427.2 -62615.8 70942 -9098.94 
48 1 35.2223 47.3779 4.64869 37.9976 218681 863491 417950 -35086.1 -16181.9 139786 
69 1 49.6492 49.0033 7.16442 7.82206 -117768 -243335 -66360 92420.6 31193 19320.6 
52 1 38.003 47.4311 4.54268 22.6632 428966 650507 379054 128277 51971.9 -36803.8 
72 1 36.7074 49.9126 4.62542 22.822 277737 122539 176820 161213 -129670 23259.8 
56 1 40.9346 47.3609 4.6249 23.5884 486983 234015 -169123 215238 158275 -64012.6 
73 1 39.6617 49.807 4.59787 22.1007 358131 189881 190629 257901 -125791 56741.3 
60 1 43.8093 47.3148 4.70116 22.9474 467453 494697 25249.9 170565 100352 138208 
74 1 42.4982 49.8534 4.69371 23.2423 188522 268152 81764.7 115496 42149.3 97151 
64 1 46.7218 47.3325 4.72474 23.8106 471962 185090 190979 113027 -87824.5 86160.6 
75 1 45.3958 49.8435 4.79194 22.4605 238678 390146 -158304 210262 -3685.54 41560.9 
68 1 49.6391 47.3298 4.77779 22.7355 192049 17181.6 -174458 37866.8 -69070.8 144005 
76 1 48.2405 49.7599 4.76101 23.2521 84070 401242 184363 179030 13931.7 -11080.3 
4 1 48.1396 31.5854 7.13187 49.0436 139103 252974 249659 -111499 160516 -34979.2 
11 1 40.9951 34.3778 6.96059 78.0355 4344.62 -22062.3 501870 -203358 79839.8 -29573.5 
1 1 43.7774 34.1478 6.98248 27.2128 451478 299882 503357 -222397 -57109 36812.3 
3 1 46.674 34.0718 7.1049 9.7214 -283008 -322887 -684548 93486.8 149000 -260748 
5 1 49.5539 34.007 7.008 7.51289 -17263.5 -294273 -43415.6 399252 217556 10954.7 
6 1 36.3887 36.9714 7.43088 99.9508 538800 303664 130875 -354226 -62304.7 308238 
10 1 39.3741 36.5911 7.08812 22.5934 777293 71771.8 -414797 -155156 214173 -93256.6 
14 1 42.4021 36.6694 7.07592 6.7909 -382415 -705423 -446743 -413952 44833.8 -293021 
18 1 45.2958 36.5278 7.05318 7.8075 -275063 -393579 -56583.4 -30789.1 15622.4 -100928 
22 1 48.1799 36.5143 7.03592 7.84908 -174722 -374733 -283379 110789 -79115.6 -67540.9 
25 1 35.0277 39.391 7.24549 38.3384 111374 59582 -124963 -299148 -171592 155922 
7 1 37.9538 39.1325 7.04869 8.67883 26871.3 -64982.6 154687 -460573 20407.4 -208748 
9 1 40.822 39.0311 7.06166 7.55301 25734.7 -542280 -210955 196068 106676 -214458 
13 1 43.8534 39.049 7.03428 7.66908 92522.7 -259268 111313 -336516 49981 -121374 
17 1 46.7425 38.995 6.99195 7.82674 -313648 -279041 -83456.6 58770.8 17088.9 56560 
21 1 49.5834 39.0344 6.97285 7.55976 -246056 -80859.8 99699.5 -314.527 135471 -25853.7 
23 1 33.6374 41.741 7.16084 40.0394 311186 148104 39443.7 -118682 -60790.5 102629 
47 1 32.2344 44.1554 7.15201 39.3228 198020 216068 -76215.4 34916.7 -128633 72848.9 
24 1 35.1166 44.1006 7.0383 7.97183 24163.1 -138621 -325785 -39292.6 215032 -181335 
28 1 36.5582 41.6387 6.96817 7.78769 63173.2 -310602 210878 -398455 153696 -166651 
27 1 38.0524 44.0137 7.06679 7.95689 -420003 -613496 -419597 -116441 -120240 -103512 
32 1 39.4682 41.5338 7.01757 8.1252 -441783 -448947 -145286 -15745.2 -20070.7 40045.6 
31 1 40.9073 44.0384 6.9806 7.87905 -189675 -363887 -37388.4 120636 106106 -27279.2 
36 1 42.3032 41.493 7.06059 7.84714 36217.2 23343.8 133461 21184.5 229754 -73303.2 
35 1 43.8236 43.9313 7.06046 7.83507 109747 -35095.8 237928 72097.2 84015.1 -42501.9 
40 1 45.3049 41.5014 7.00187 7.95507 2277.81 -508192 -206704 -57659.8 -37641.4 62757.9 
39 1 46.6813 44.0052 7.04288 7.92866 59181.2 2488.72 -42752.6 -43997.8 44976.2 41983.8 
44 1 48.1591 41.5043 6.98128 8.02471 -124192 14008.1 182275 58010.5 99791.1 191810 
43 1 49.6374 44.0123 7.06141 8.06533 -33.0256 72020.1 161278 -51575 69401.7 104737 
45 1 31.002 46.5241 6.89268 97.3052 -237382 -74379 236488 140153 130295 33188.1 
50 1 33.7274 46.5846 6.94144 8.11033 -347627 -44897.9 160345 358447 22766.1 -197213 
54 1 36.6702 46.5203 6.95613 7.85899 -5979.62 -111977 -10103.3 -51404.2 -193658 -270538 
58 1 39.5255 46.4762 6.88366 7.94697 -156250 -261079 45628.3 -21578.2 253273 -46555.4 
62 1 42.4091 46.4827 6.98976 7.782 -277553 -34729.1 14295.9 -6161.9 186627 101336 
66 1 45.2403 46.5071 7.07399 7.96862 -105912 77412 57558.5 227660 38034.9 -7173.78 
70 1 48.1538 46.5355 7.05574 7.91037 138452 24165 -29154.9 71297.3 55336.5 18320.8 
46 1 32.3639 48.969 6.94181 23.9541 172715 -237228 16022.5 189525 -144126 -79732.9 
49 1 35.2977 49.0807 7.07293 7.78156 -434382 -199617 -356846 69998.3 -322290 95546.3 
53 1 38.0934 49.053 6.95225 7.77125 -176943 263377 265429 14488.4 -106823 106803 
57 1 41.0069 48.9615 6.95046 7.46149 159728 -27342.6 -33999.6 118270 -46766.1 19112.4 
61 1 43.9006 49.022 7.06361 7.92413 -129796 16555 -135713 171005 4906.53 170059 
65 1 46.7637 49.0138 7.12977 7.77376 -301638 -127856 -169629 134240 -68190.5 80288 
71 1 33.9089 49.8938 4.74365 43.1642 98148.3 191293 -76027.4 -16795.5 -29232.7 -180243 
87 1 42.378 34.8007 9.39358 17.8384 573709 278993 923537 -46114.2 133375 -88114.4 
78 1 46.7631 32.4188 9.38925 27.407 499740 -10340.2 80932.9 73650.2 224.755 -38422.7 
91 1 45.2624 34.8107 9.37873 10.0924 286912 -284296 -170256 324115 411537 -29610.3 
80 1 49.6259 32.3298 9.44281 18.9349 170161 98464.5 -119316 51641.4 285866 -265748 
95 1 48.2362 34.8713 9.37944 7.20762 95399.4 -55152.7 -9915.39 -20458.7 77541 41629.9 
82 1 38.1976 37.3127 9.46662 18.8279 -384995 155302 -227244 -87254.4 143002 -385722 
84 1 40.9606 37.2771 9.34408 8.44798 -400135 331577 -272246 16129.8 267286 40947.5 
88 1 43.8867 37.2495 9.414 7.17584 -51389.3 187507 -155923 231082 -3417.51 -107314 
92 1 46.7779 37.3496 9.37115 7.81531 -165030 252571 -80328.4 151887 60960.5 -145363 
96 1 49.6076 37.3913 9.37212 7.60115 -192364 -112172 129495 -140137 -51161.2 -91151.3 
101 1 36.6234 39.8287 9.4094 12.1877 -176043 609466 -86276.2 -47556.5 15702.8 -187587 
105 1 39.4565 39.8435 9.37107 7.95631 162523 150013 -107574 -86261.2 134879 -193836 
109 1 42.4429 39.7998 9.41352 7.62403 190702 265467 -282685 -63387.5 107793 16307.6 
113 1 45.3056 39.8617 9.33692 8.16408 61049.8 157360 23257.2 41327.5 -61377.6 52187 
117 1 48.2319 39.9015 9.38581 7.49019 -108751 -390672 -21734.2 -3372.23 49562.9 -25429.2 
99 1 35.2188 42.3072 9.3632 12.2395 -307926 179660 -25193.3 48029.7 71990.8 -116630 
102 1 38.0213 42.3565 9.38171 7.69915 -173509 -244642 -114869 118981 133404 86489.6 
103 1 38.1156 43.9854 11.728 7.64614 -161646 80308.4 -139812 -49031.9 -130347 -153003 
106 1 40.9589 42.3609 9.34197 7.76951 116560 188691 -176620 -27454.7 133796 -191536 
108 1 39.5357 41.4453 11.7436 7.76717 83940.6 94568.4 -232098 34745.4 -9021.47 126993 
107 1 40.9479 44.0192 11.6957 8.11128 -275989 131009 -77451.4 -17910.7 231115 -48139.6 
110 1 43.8274 42.3264 9.4103 8.17512 -12110.6 -19904.2 -45984.8 -57414.6 72563.8 137749 
112 1 42.4172 41.452 11.7149 7.77827 -16588 -150317 -311781 -62821.5 166794 -102536 
114 1 46.7286 42.3608 9.40668 7.87306 227017 -137947 262268 -101015 -8824.83 144586 
115 1 46.7853 44.0244 11.8283 7.87537 -81185.6 -181540 -89252.4 -52537.6 74219.7 67209.9 
118 1 49.6737 42.2958 9.38705 7.8108 -342687 -361104 -99011.1 -109541 -37481.5 105242 
120 1 48.2019 41.4897 11.7454 8.11595 -317728 -203220 -43908.6 10322.1 34805.4 -124228 
119 1 49.6335 43.9765 11.7507 8.04963 -290604 -101047 -104898 -99078.2 152908 125654 
123 1 33.7705 44.7932 9.33198 12.3 -101960 472833 -340429 67657.8 183555 -312429 
127 1 36.6283 44.8124 9.35496 7.78313 -363532 -57728 -346743 95014.9 177840 -203410 
131 1 39.4882 44.8753 9.32081 7.65906 -354995 -258105 -280804 -54115.8 -95053.8 -194900 
135 1 42.3686 44.8582 9.36818 7.95831 -83977.3 -204493 -126268 32367 116367 -17758.7 
111 1 43.8286 43.9912 11.7547 8.09115 176993 6123.74 -56359.4 11162 135463 -57201.5 
138 1 42.3963 46.4932 11.7156 8.04606 -60749.6 -272766 -70741.2 30740.4 69957.6 -62892.9 
139 1 45.2633 44.8574 9.42549 7.88446 -50386 -72267.8 42468.7 -111343 119253 -27179.4 
142 1 45.3165 46.4677 11.7925 7.89163 -100694 -340393 -215381 -54356.7 173478 54954.9 
143 1 48.1236 44.8388 9.41149 7.90368 50616 10755.3 215037 -186184 20451.2 43137.8 
146 1 48.1789 46.5156 11.8229 7.80913 -235061 -178820 -252582 -89431.1 119570 35203.7 
121 1 32.3232 47.2984 9.27212 16.6639 66415.9 444160 268752 87749.4 210874 89754.6 
124 1 35.1693 47.3759 9.30494 7.66261 338942 342023 -117082 -75894.5 -17950 144458 
147 1 33.6269 49.8656 9.27342 8.17088 656818 383196 -168137 -233327 316652 -15054.6 
128 1 38.1079 47.3551 9.27897 7.97713 83124.8 121184 54914.9 46023.2 -96791.7 24256.1 
148 1 36.6389 49.9098 9.34374 7.39322 387348 83785.7 -593418 -187713 -93312.7 -172145 
129 1 38.1394 48.9666 11.6966 7.6298 -192525 -267096 26344.5 68805 72049.9 10020 
132 1 40.9594 47.3156 9.33452 7.98725 -287922 -77656.1 50591.9 79228.8 120394 43539.3 
149 1 39.5524 49.8703 9.3428 7.79527 -45866.5 -55143.1 160628 -130680 -19177.8 90930.6 
133 1 41.0106 48.9851 11.6919 7.74301 -171907 41324.8 68065.5 33134.8 13844.6 61360.2 
136 1 43.825 47.3841 9.39293 7.42974 -134138 -213066 -329463 -115030 197073 -148446 
150 1 42.3922 49.9147 9.369 7.41043 -115655 -254414 -319890 117660 144435 228251 
137 1 43.8679 48.9773 11.6954 7.90308 -317823 49338.5 -251836 -135812 181251 4635.16 
140 1 46.699 47.3231 9.45672 7.79463 -19324.2 -300904 -37201.8 3032.87 65985.2 98909 
151 1 45.3108 49.8183 9.44396 8.10178 -280314 -261034 -310594 -88485.5 199532 31824.4 
141 1 46.6962 48.9747 11.8376 7.7622 -250454 -66667.9 -138924 137014 106212 -31184 
144 1 49.6334 47.2903 9.47126 7.86742 -114155 45130.9 93460.4 92148.8 7489.17 111170 
152 1 48.1796 49.8219 9.49185 7.88813 -285114 -290598 -424903 21656.1 -131829 -35695.4 
145 1 49.597 49.0124 11.7958 7.87311 116855 10636.5 -233280 33962.1 -97413.5 73436.7 
77 1 43.9506 34.0412 11.7395 25.6779 334708 278791 621289 -248922 164378 71133.6 
163 1 42.5669 34.8565 14.1179 26.0054 372002 -105713 785298 -276164 61213.2 30281.5 
79 1 46.8014 33.9374 11.7321 12.567 73327.5 299664 401118 -123997 58712.6 -128657 
154 1 47.1283 32.4106 14.12 41.8973 533911 -205403 518392 -326370 4056.33 -88551.2 
167 1 45.4109 34.7952 14.1308 9.59789 149649 319041 403036 -67323.9 -145688 10114.8 
156 1 49.9328 32.4386 14.0716 36.5293 525944 -434684 -137110 -211297 -81263.2 281868 
81 1 49.6205 33.8914 11.807 9.95708 328348 188009 589.688 94020.9 -144114 135149 
171 1 48.2422 34.8555 14.144 7.45236 -279784 -688933 -66082.8 -346669 -34537.5 70169 
158 1 38.1849 37.3792 14.1004 26.1929 64483.7 -83975.2 225329 -339.869 -20601.1 129569 
86 1 39.6223 36.5287 11.7666 24.9033 -90739.7 83742.5 232218 -302695 -182591 51040.4 
160 1 41.0011 37.2636 14.1209 10.2042 -22728.5 121706 -145046 -133241 -146276 -129833 
90 1 42.4361 36.4769 11.7518 10.1853 -146630 84991.5 51512.4 -42387.9 52206.9 2066.41 
164 1 43.8941 37.2743 14.0762 7.85175 -104025 -56804.1 103933 -240825 -4707.33 -24659.1 
94 1 45.3675 36.4825 11.7738 7.85728 -84414.7 47360.3 2668.39 -164025 -654.039 -42862.9 
168 1 46.781 37.3651 14.1276 7.40451 -121128 -81184.4 -40590.6 123017 20923.2 -39145.7 
98 1 48.2066 36.4786 11.7906 7.59185 -218853 295931 8805.33 17101.9 -31582.1 -48952.5 
172 1 49.647 37.3741 14.1016 7.59441 -109891 -285567 65791 -93168.6 -201001 -70517.2 
83 1 38.0576 38.9319 11.7685 12.7875 293343 76960.1 -169252 -73655.6 -67348.8 -92715.3 
177 1 36.7195 39.8212 14.1315 19.576 -210024 -35568.6 68222.4 -20985.2 43534.8 -147109 
85 1 41.0256 38.9423 11.7236 8.0542 -12030 -372701 28752.1 -203698 82194 -50978.7 
181 1 39.5105 39.8635 14.0255 7.88878 -436632 -325211 -124047 -102456 -196854 157992 
89 1 43.8795 39.0038 11.7384 8.10963 -222954 70689.4 36193.6 93001 -98144.1 28555.9 
185 1 42.3788 39.7855 14.0744 7.50201 -35648.5 -19687.5 -188154 -88802.7 17979.6 -5216.95 
93 1 46.763 38.9822 11.7204 7.98475 123891 -27444.1 328335 -56438.6 85221.7 -5360.62 
189 1 45.3184 39.8042 14.1279 8.0432 20044.1 -115519 44597.6 -26740.4 97204.6 131758 
97 1 49.6561 39.0357 11.7353 8.05573 -257604 -196898 -44944.9 -131814 -246289 -32579.3 
193 1 48.1938 39.8866 14.1787 7.64587 -165285 -202433 21976.9 120348 -136085 139517 
175 1 35.2851 42.3018 14.0488 19.8991 -106139 299358 147728 -65461.1 43700.6 -63575.6 
100 1 35.2218 43.9293 11.6689 12.8447 217598 336315 183523 -122620 8110.78 -6793.98 
104 1 36.6736 41.4485 11.7328 12.4371 -19569 169053 -4864.44 -80636.8 117049 -147639 
178 1 38.0848 42.3047 14.0975 8.01332 -227932 -265354 -46215.8 50354.5 2011.6 -87746.7 
182 1 41.0149 42.3078 14.0607 7.96885 -235691 38159.5 249203 -6790.4 -136913 -85482.8 
186 1 43.8207 42.2952 14.1012 7.65181 -383674 138115 -35747.5 40020.8 117596 15722.1 
116 1 45.3313 41.5029 11.7834 7.87593 -41014 106802 -80558.4 -62754.5 -48433.1 -66313.2 
190 1 46.7114 42.3065 14.0994 7.72624 149865 -20308.5 -100757 -31408.5 -85939.5 84636.7 
194 1 49.6712 42.3654 14.0958 7.58612 -179354 -306883 141406 -60034.3 30585.7 21952.7 
126 1 33.7414 46.4339 11.6319 13.1816 216374 111839 272086 137965 -71999.8 -162578 
199 1 33.7407 44.7708 14.0209 22.748 537131 743961 551482 -145125 13118 -107416 
130 1 36.6654 46.4923 11.6473 8.14117 36398.3 81042.5 -53434.7 77455.2 87471.3 -221833 
203 1 36.6349 44.8279 14.0701 7.96929 223931 -24026.6 207168 -6039.16 56414.3 -36879.2 
134 1 39.5184 46.5141 11.6792 7.91749 -379745 -436688 -230199 137867 79207 7870.59 
207 1 39.535 44.8384 14.0143 7.98151 4653.79 -29875.7 -138046 -66369.7 75548.6 -85902.4 
211 1 42.4375 44.8154 14.106 7.91628 -143771 36966 138126 83876.5 107163 -111226 
215 1 45.2674 44.8626 14.129 7.88224 -7169.9 7348.03 -253756 -73586.1 129839 39838.9 
219 1 48.228 44.8277 14.1385 7.95773 1337.5 -182472 -129914 179201 -165463 11442.3 
122 1 32.4339 48.8563 11.6426 25.4702 20660.1 6406.03 204651 75283.1 11838.4 38141.3 
197 1 32.3705 47.3416 14.0148 28.7554 52253.4 61554.3 324446 -234447 -35231.2 106126 
125 1 35.2673 49.0166 11.6458 7.41779 -184201 -122276 -180581 14171.8 169325 -50713.6 
200 1 35.2002 47.3059 13.9435 7.92223 -97859.4 -16056.2 -33897.3 254415 199488 -50955.7 
223 1 33.7589 49.7395 14.0112 9.83847 -120965 -25672.8 -199313 71584.6 53875.8 206216 
204 1 38.0842 47.3133 14.0364 7.97271 -44883 50792.8 -41393.8 42267.4 -1214.74 -21465.7 
224 1 36.6559 49.8557 14.0042 7.64656 131180 195098 -126031 10380.3 6548.26 86346.4 
225 1 39.5359 49.8757 14.0566 7.96964 17560.1 95921.7 50137.6 -2433.66 -22016.3 158816 
208 1 40.9566 47.3134 14.0631 8.0982 -52793.5 142277 123765 -91827.5 -16970.3 10430.1 
212 1 43.8385 47.3717 14.0934 7.76988 229081 -20305.7 29018.2 152049 -13657 -34201.1 
226 1 42.4121 49.8417 14.0881 8.04674 122697 169375 169156 104752 111585 46434.9 
227 1 45.3318 49.8773 14.1372 7.52063 92371.8 73906.5 -159356 -69287.6 184927 6457.29 
216 1 46.7975 47.2826 14.1632 7.64135 -54738.1 -29906.1 -215181 -6695.93 112679 -7729.46 
228 1 48.2105 49.8244 14.1953 8.29186 -60847.6 -49660.2 3426.11 156214 105493 -27465.9 
220 1 49.6522 47.3355 14.1514 8.15289 -84274.6 -93475.6 74071.6 -94042.8 12696.6 -93325.7 
153 1 43.9009 34.089 16.591 25.4952 172386 94189.2 536314 -287238 -147381 -202031 
155 1 46.7354 33.8883 16.4799 12.4996 454676 379591 311627 -66575.6 -74893.4 199157 
157 1 49.6544 33.9699 16.444 10.8139 384189 350603 590870 -7157.46 -113668 -20826.4 
162 1 39.4975 36.5356 16.4727 27.3224 314149 51548.4 440868 273.349 49952.2 -16321.7 
166 1 42.404 36.5221 16.4798 10.1537 308021 262894 109484 -6679.35 -152476 137363 
170 1 45.3212 36.4847 16.4765 7.96601 -87610.5 65444.4 271913 -311455 -32416.8 42470.1 
174 1 48.137 36.4583 16.5245 7.37426 -85000.9 177560 92690 163208 -97837.8 12698.8 
159 1 38.0463 38.9175 16.5018 12.594 11299.2 -49720.4 46272 52865.1 -179880 34813.1 
161 1 40.9159 38.9981 16.3951 8.08811 242589 -71289.7 248202 110406 89145.8 -80676.4 
165 1 43.8902 39.0475 16.4442 7.78076 166229 191430 271253 -34657.3 101801 128731 
169 1 46.7561 38.9734 16.5255 7.5831 -387081 -18992 26264.4 -71022.5 -121120 14577 
173 1 49.5551 39.015 16.4661 7.58656 -387528 2318.76 61081.5 142366 -190939 84735.4 
176 1 35.2034 43.9331 16.3995 12.7836 331627 216647 317578 -117503 76434.7 28565 
180 1 36.6201 41.4399 16.4284 12.8095 20923.2 247629 9108.04 25218.3 62900.8 -118209 
179 1 38.1383 43.9857 16.4053 7.84202 20307.3 -49020.9 60321.5 47283.7 -5056.12 -66328.3 
184 1 39.4813 41.4437 16.4905 7.79433 126976 -81202.4 -8126.6 283873 -35697.1 12935.9 
183 1 40.9655 43.9796 16.4793 8.09399 -4596.06 30513 58371.8 290.248 92037.7 86206.3 
188 1 42.4162 41.4849 16.4411 7.80812 56314 -116886 -190531 52895.7 17884.7 102675 
187 1 43.9081 43.9713 16.4785 7.54319 -33940.1 -190254 -8290.23 -54019.9 50666.6 128794 
192 1 45.3147 41.523 16.4994 7.47528 -90744.1 -219108 -4079.68 -23060.8 107536 -28039.3 
191 1 46.7563 44.015 16.51 8.18243 -18948.8 40478.2 429727 -61348.5 7586.36 69374.8 
196 1 48.2106 41.5411 16.5063 7.73603 -97265.3 -65065.5 300525 92419.1 -27092.7 -124370 
195 1 49.6777 44.0035 16.4964 8.02768 -135596 -67040.6 76830.9 -40206.2 7478.93 -9925.89 
202 1 33.8165 46.4622 16.3115 12.8258 -109722 302820 525842 -271212 -83086.3 23518.8 
206 1 36.6389 46.464 16.4313 8.04342 -311622 -132614 12330.6 182108 163173 -52452 
210 1 39.4899 46.4848 16.4463 7.93456 -124734 45002 320913 116576 305.699 18398.9 
214 1 42.3652 46.484 16.4456 7.61427 -11793.1 83030.9 58786.5 -52271.1 33632.9 -22118.4 
218 1 45.2477 46.4989 16.4638 7.67063 98404 -198093 -112474 126665 166364 -128326 
222 1 48.2088 46.4905 16.5449 8.01947 245850 4369.74 -98301.3 57139.4 54034 12780.7 
198 1 32.4038 48.9765 16.3398 26.4688 133222 650473 436034 -102218 134260 18283.6 
201 1 35.2421 48.9316 16.3419 7.6231 -64568.1 -40224.5 89002.5 107384 56255.5 141920 
205 1 38.1047 48.9674 16.389 7.59127 137057 109713 179470 170581 78221.3 -54580.1 
209 1 41.0296 49.0505 16.4179 7.89734 5777.26 252227 25751 -3019 132203 160546 
213 1 43.8713 48.9769 16.4789 8.0355 -210784 -117912 -31608.9 48669 -78507.2 -55610.6 
217 1 46.7586 48.9908 16.5053 7.96709 99243.5 3599.55 -103971 92918 191434 13188.6 
221 1 49.7249 48.9894 16.5212 7.36876 26134.2 -11593.7 42723.9 33889.1 -20200.5 -4458.38 
239 1 42.388 34.9566 18.8392 24.3357 424231 -268096 591355 -26110.3 117149 -18530.5 
229 1 43.8009 34.0397 21.2532 27.7604 617090 409819 613591 -150834 61338 -154482 
230 1 46.821 32.4439 18.8427 39.0563 511898 57783.6 51084.1 -110419 23418.6 -30600.3 
243 1 45.2629 34.8623 18.8779 10.7808 424737 59759.3 89135.9 -157878 -360366 -81278.8 
231 1 46.7323 33.9497 21.162 11.8257 676998 314726 273235 -292588 -42118.8 -10818.1 
232 1 49.6117 32.3949 18.8794 30.7766 534591 215288 458618 -24073.2 10308.2 -117781 
247 1 48.196 34.8846 18.8859 7.50207 -82187.7 -432329 -26689.4 -142143 68779 135467 
233 1 49.6462 33.9715 21.2149 10.4915 328249 309128 164056 -112162 -46776.9 56337.6 
234 1 38.1325 37.3536 18.8003 27.7356 -37449.5 32578.3 327519 -181670 153097 81076.6 
236 1 40.9121 37.3175 18.8595 10.049 -143425 -57780.9 376950 163456 31181.1 -19261 
238 1 39.5987 36.546 21.2617 24.6981 -165801 205231 433578 -231079 127624 -106892 
240 1 43.8187 37.3741 18.8562 8.00373 49176 25953.6 305843 -135101 -98644.8 -5084.3 
242 1 42.3759 36.5306 21.2327 10.4328 -613690 15766.7 -108575 -222874 -67630.8 -69991.1 
244 1 46.6945 37.3556 18.8936 7.69812 82599.4 -57272.5 -78825.1 -110547 -2184.86 74692.1 
246 1 45.2294 36.5206 21.2294 8.08106 -193867 67365.1 -230333 -41383.1 128204 -82150 
248 1 49.6292 37.3471 18.8532 7.92415 -118300 -343052 208877 -104974 -52709.2 -75139.2 
250 1 48.1151 36.474 21.226 7.70125 254955 57196.4 -150872 3352.94 -48995.6 -34619 
253 1 36.6072 39.832 18.8024 21.4236 272935 356032 277070 -76993.3 92111.3 -139139 
235 1 38.0741 38.9409 21.1955 12.0824 72024.2 286377 427895 -171612 -160000 -19099 
257 1 39.4596 39.8191 18.817 7.79976 -82064.2 -229532 -101528 -87765.8 -106817 76619.5 
237 1 40.9262 39.0522 21.2072 7.81562 -295431 -201355 144861 -26415.1 -9743.49 -44025.7 
261 1 42.3407 39.8726 18.8087 7.75331 42845.1 13812.9 441941 -17838.4 58603.5 127137 
241 1 43.7877 39.0036 21.2636 8.1274 -90819.4 -239207 74175.4 -19374.9 122362 107640 
265 1 45.2193 39.8988 18.8994 7.47114 -92492.5 -367542 237025 83379.4 -35413.2 -13858.6 
245 1 46.6822 38.9915 21.2677 7.93877 18943.5 -264481 31480.7 -18575.3 25249 60340.8 
269 1 48.0915 39.8509 18.8878 7.44357 92809 -12443.8 -39682.8 -106999 -124399 -185326 
249 1 49.5785 38.9843 21.2394 7.99918 90998.3 -78447.5 34669.8 176664 51422 148290 
251 1 35.2168 42.3263 18.7414 21.1114 148470 269100 225268 -68270.7 81264.3 -28736.1 
252 1 35.2744 44.0168 21.0565 12.8601 -20058.2 191784 30266.3 -348752 51909.8 274167 
254 1 38.0655 42.3264 18.7927 7.83557 -201984 -86407.2 -44568.7 139909 69644 9563.24 
256 1 36.6387 41.4307 21.1306 11.8523 127314 518955 351654 -49094.8 205308 -155092 
255 1 38.125 44.0187 21.175 7.85507 -243740 78013.9 9372.47 122040 106972 17554.8 
258 1 40.9411 42.3583 18.7912 7.9272 -107556 -380674 -125712 191151 37843.2 26484.3 
260 1 39.4847 41.508 21.146 8.14266 -166984 -91969.7 105858 231493 1872.99 8930.46 
259 1 40.975 43.9912 21.1546 7.83022 -429590 -131753 -209815 56925.2 -35132.2 29338.5 
262 1 43.8355 42.3022 18.8041 8.00507 -176743 -361411 98230.7 145984 44980 -58173.7 
264 1 42.3599 41.5145 21.2462 8.09809 -15576.9 -321462 264198 -6816.16 86433.9 -32440.4 
263 1 43.8223 43.9714 21.191 7.88289 158299 138537 197122 -32747 25541.7 26197.3 
266 1 46.7026 42.3597 18.8928 7.58525 23430.3 -154316 38699 -10466.9 -115354 -42103.7 
268 1 45.2842 41.4841 21.2812 7.69655 91883.4 -53543.1 -3070.25 27933.7 -10217.3 -95650.4 
267 1 46.8144 43.978 21.2444 7.55331 300028 -120658 -68249.1 -20727.9 -39520 46882.5 
270 1 49.6326 42.3376 18.9137 8.0013 -81398.2 -116726 34513.2 146365 97549.6 -132475 
272 1 48.1554 41.4654 21.2141 7.90104 112276 -208163 -67573.6 152505 44807 -44027.8 
271 1 49.6869 43.9781 21.2436 7.6495 -321453 -208250 -127519 -135364 -121222 -75876.7 
275 1 33.8018 44.8538 18.7401 21.2803 187643 485519 443894 -152366 -32757.3 -31072.7 
278 1 33.8023 46.5099 21.1077 13.1662 53555.7 373988 388011 -27409.4 161187 -29276.5 
279 1 36.6408 44.8218 18.7582 7.95002 -59077.4 -4492.51 -121618 -2415.7 207092 216674 
282 1 36.6614 46.5128 21.1403 7.98647 -330460 -211962 -115463 12078.2 150526 -23562.9 
283 1 39.539 44.8022 18.8245 7.9756 -153799 44932 -186522 182264 66795.1 10109.5 
286 1 39.518 46.5268 21.1479 8.23682 -203398 -29512.8 -5283.96 47320.9 -107772 -57873 
287 1 42.4047 44.8519 18.8253 7.92089 -242295 -47108.5 -248460 -168658 -44666 -42672.5 
290 1 42.4043 46.5066 21.1211 8.06841 52541.1 -58535.2 -64192.2 -113426 38838.2 -148994 
291 1 45.2583 44.8521 18.8833 7.90678 95560.7 -264431 87220.4 100071 49221.6 -101754 
294 1 45.3378 46.4869 21.2093 7.472 120947 89252.7 -161134 -10854.4 -66662.2 -92452.2 
295 1 48.2445 44.8174 18.8862 8.14292 127690 -178022 116501 101667 12911.4 145307 
298 1 48.21 46.5119 21.2818 8.2129 -328014 -33603.3 -61369.9 -92288.4 33127.2 -48797.6 
273 1 32.3828 47.3781 18.72 29.6796 161282 236540 665172 -192621 -63599.1 -82957.7 
274 1 32.5044 49.03 20.997 23.7688 -84695.2 343705 262088 -157984 278418 46548.4 
276 1 35.2034 47.3395 18.7279 7.57585 -159222 -122235 119969 176856 146270 65235.8 
277 1 35.3246 49.0367 21.1387 7.19951 -559041 -158147 67742.5 77036.6 3927.34 131974 
300 1 36.7064 49.861 18.7627 7.7791 -224228 -141564 96681.2 263288 97544.1 163166 
280 1 38.0835 47.364 18.8223 7.82238 -3322.63 112480 -174172 76533.3 34897.1 -9841.61 
281 1 38.1213 49.0149 21.1402 7.75004 -481596 -271415 26679.3 119341 -114761 -146197 
284 1 40.9729 47.4103 18.7826 7.73256 222257 197558 43090.5 54750.8 10534.3 -1901.68 
285 1 41 49.0449 21.1607 7.9351 -122459 146026 -38026 -43125.1 5567.3 -32313.5 
301 1 39.5339 49.9145 18.7601 7.87463 -182001 -195691 131551 62856.5 58832.2 38118.2 
302 1 42.4314 49.8823 18.8436 7.8477 64261.4 161271 59122.3 -109262 69574.8 18701.5 
288 1 43.8905 47.3057 18.8193 7.82268 -73218.9 -344831 -153243 -30683 207093 51395.2 
289 1 43.8553 48.9685 21.1973 8.06214 54004.9 10487.3 -9420.81 -49387.4 -34331.7 95684.8 
303 1 45.3085 49.7752 18.8179 7.89699 59447.6 53971.6 -129980 -127750 80407.9 -66064.5 
292 1 46.7865 47.2969 18.8511 7.93407 -159004 -110255 111668 3675.25 216117 56562 
293 1 46.7809 49.0063 21.2566 7.92817 40281.4 -112057 -46099.4 5308.68 129113 193513 
296 1 49.6602 47.3147 18.9068 8.07855 -237131 -292725 -6368.12 128100 23094.7 -72189.5 
297 1 49.6675 48.9731 21.2603 7.65477 -364585 -257848 -97778.4 -180311 -23762.1 74944.2 
304 1 48.2395 49.7553 18.9057 7.6618 -124436 -250632 84808.7 17080.4 12080.2 105571 
315 1 42.4703 34.8827 23.576 26.2905 -294348 -11215.7 320967 -123038 -1487.42 63489.4 
319 1 45.208 34.8423 23.5829 10.3587 -477658 -222223 28984.2 21564 23199.6 65839.9 
306 1 46.7429 32.4911 23.5961 49.0249 338028 -68588.9 532771 -102495 -2038.01 67038.2 
308 1 49.5148 32.4047 23.5199 33.0461 416314 245978 469620 35449.7 46937.1 246470 
323 1 48.1135 34.8825 23.5843 7.67861 -153332 -464286 330302 -127438 26784 209399 
310 1 38.1641 37.343 23.5658 28.5077 -4103.41 183634 453007 -291301 14370.2 90441.8 
312 1 40.9552 37.3358 23.5971 10.1393 -293668 -9985.57 -80591.9 -109955 -113098 -85934.6 
316 1 43.8222 37.3377 23.541 7.87507 -399063 -442929 -435553 -9914.95 -10417.2 -98421.8 
320 1 46.6828 37.3507 23.5926 8.02726 -66610.2 -103165 -141524 49340.6 32259.2 28576 
324 1 49.5899 37.373 23.5817 7.99882 -13767.6 -393781 87624.3 189722 20955.8 39800.8 
329 1 36.5695 39.8883 23.5822 20.5177 305678 664179 468543 -187943 -128355 20786.6 
333 1 39.3986 39.8179 23.5204 7.67746 -6848.84 -89312.1 95176.5 -127813 -50643.3 -153752 
337 1 42.3213 39.8368 23.6045 8.20996 66904.7 -148287 -134903 22247 -173466 5978.77 
341 1 45.2303 39.8698 23.6509 8.06524 -73682.1 -218244 -385109 61443.7 99031.2 175313 
345 1 48.1257 39.8594 23.6353 7.94752 64723.9 -114495 -102314 -33955.8 11527.8 34901.6 
327 1 35.2533 42.4354 23.3863 18.7744 -13287.8 -139111 267808 -232817 107618 49242 
330 1 38.086 42.3588 23.5433 7.65514 -247209 -235139 -156709 174959 16251.8 13918.6 
334 1 40.9546 42.354 23.5651 7.96543 -284953 -155067 85644.7 234693 122492 2209.69 
338 1 43.8028 42.3271 23.6411 8.20648 -184623 -149230 -57330.8 140118 -122786 -80633 
342 1 46.7155 42.3767 23.5816 7.93415 14011.6 -128666 -28929.1 -99292.9 -147017 79165.9 
346 1 49.6011 42.3266 23.6172 8.14574 -7780.63 -158032 68357.4 65751.2 -49508.8 136417 
351 1 33.7909 44.8954 23.4786 20.6064 230275 294428 343094 -5294.23 -107120 -7942.23 
355 1 36.6347 44.8273 23.5017 8.01325 -205338 -517144 -79977 -220785 173470 -12441.4 
359 1 39.5544 44.8262 23.5426 7.81353 -352320 -215710 100566 37793.8 -67665.6 -66939.8 
363 1 42.3641 44.8383 23.5636 7.95319 -637403 -207635 -123871 -16135.8 -106325 -31400.9 
367 1 45.2133 44.8615 23.5773 7.81046 122525 79216 152324 6621.88 -4787.73 103504 
371 1 48.1723 44.8171 23.6206 7.86684 113145 -64455.8 -40599.9 -142053 -110879 -7767.91 
349 1 32.4405 47.4148 23.4064 27.7827 69273.4 246257 539975 -6629.45 36748.6 5109.41 
352 1 35.2739 47.3876 23.471 7.69186 -555138 -251374 -145897 -24939.5 13593.4 52585.8 
375 1 33.8122 49.8837 23.4804 10.4629 -193976 86815 121749 -35290.1 69526.6 60935 
376 1 36.6608 49.8274 23.5584 8.02476 -535008 -125450 -51846.9 -54952.6 -51268.6 47000.8 
356 1 38.0718 47.3155 23.5206 7.83095 -531617 -4676.35 -107582 21950.8 9601.11 40704.7 
360 1 40.9581 47.3377 23.5001 8.14269 -246858 -69588.1 35834.8 -75897.3 -97062.8 -31407.4 
377 1 39.4793 49.8798 23.5322 7.73704 -217563 305045 215326 -55212.5 19744.7 -72377 
378 1 42.3455 49.8541 23.5301 7.21989 -20415.2 5026.33 -87177.7 -22269.8 -98682.5 15242.6 
364 1 43.7922 47.3506 23.5381 7.77816 -127180 -91384.5 -7267.73 16580.2 5866.17 84585.2 
379 1 45.269 49.8602 23.5506 8.06489 272353 37940 261362 4235.4 138835 -45725.1 
368 1 46.7066 47.3694 23.5527 7.78388 89071.1 100916 -260487 -3954.52 6710.17 116048 
380 1 48.2032 49.855 23.6299 8.32295 -61537.5 88807 -87054.5 140007 -172416 -14433.8 
372 1 49.6048 47.3413 23.6245 7.78923 -43023.2 10601.1 -368603 -2023.02 23183.8 -53800 
299 1 33.8222 49.7862 18.7182 10.1483 -278740 -394495 -127243 193278 319065 117545 
305 1 43.8426 34.1366 25.9179 21.7614 -56714.1 -202546 170425 -294413 35692.1 167490 
307 1 46.7008 34.0844 25.9773 12.5877 -78983.7 -19084.7 313089 -33223.3 -3069.8 59703 
387 1 45.273 34.7842 28.3511 12.9741 384868 282060 429404 18726.3 20749.2 -6117.98 
309 1 49.544 34.0227 25.9982 11.5862 58806.2 269528 472871 -14804.2 253122 225600 