ITEM: TIMESTEP
40000
ITEM: NUMBER OF ATOMS
5538
ITEM: BOX BOUNDS pp pp pp
0.259222 99.7408
0.0641917 99.9358
-8.03749 108.037
ITEM: ATOMS id type x y z c_csym c_2[1] c_2[2] c_2[3] c_2[4] c_2[5] c_2[6] 
15 1 45.2366 34.889 4.90106 37.8399 215201 -231235 -64322.5 -28887 -52242 -96658.5 
2 1 46.6182 32.4519 5.00486 101.411 309993 215690 94537 -41418.7 -12201.4 57419.1 
19 1 48.0826 34.8016 4.76167 32.2081 470022 36183.9 158331 72592.5 -169733 92092.9 
8 1 40.9243 37.2157 4.88795 47.2174 715829 785794 417282 65611.6 -59213.9 -34817.9 
12 1 43.8277 37.2867 4.86591 31.4993 555850 44196.2 28923 211296 54723.7 31829.6 
16 1 46.7341 37.2681 4.84263 22.2235 121456 -176917 -80015.3 -53433.4 -28306.2 118849 
20 1 49.6125 37.1851 4.77588 21.8203 199510 422085 -112314 -195286 -138773 79857.9 
29 1 39.5848 39.7187 4.79537 38.6595 362967 949565 287169 -204819 -45964.7 100920 
33 1 42.4152 39.7373 4.81483 23.893 190783 331743 -31400.3 263293 -118342 71164.5 
37 1 45.3086 39.7789 4.826 23.2118 -87922 323443 41145.5 88559 -34655.4 122528 
41 1 48.1025 39.7414 4.80643 22.8842 4423.34 271337 -46654.8 -208157 -118971 99340.7 
26 1 38.0669 42.2782 4.86115 36.2926 595843 875106 -83633.5 -211083 -8730.76 239759 
30 1 40.9969 42.2069 4.73275 24.5065 603398 692421 335018 100161 -61276.9 52957.2 
34 1 43.8423 42.2277 4.82228 22.983 142254 233926 -9007.43 -50955.7 -83493.1 18648.1 
38 1 46.7184 42.2769 4.78469 22.592 132859 -16118.8 253885 -150233 -69390.1 -11982.1 
42 1 49.5653 42.1786 4.70372 23.6902 326612 372966 223893 -55522.9 -107648 -27532.1 
51 1 36.7166 44.7983 4.85447 37.1093 270862 707246 116098 -300581 171445 -13291.3 
55 1 39.5401 44.7473 4.82199 23.1912 328664 786385 107490 -38080.2 -139279 129173 
59 1 42.4272 44.7847 4.7759 23.5751 -7073.81 399928 157772 -38341.3 -35250.2 61716.2 
63 1 45.2188 44.7207 4.76978 23.0109 -4278.92 157645 161385 -30352.1 65815.3 113629 
67 1 48.1406 44.6629 4.7172 23.4774 252381 -6341.04 204700 -254116 -67389.9 21121.2 
48 1 35.2269 47.3313 4.75728 40.2945 503673 883416 524991 -325655 66243.1 48272.6 
71 1 33.7486 49.81 4.8662 44.567 468120 789677 210426 41064.1 -330000 66933.4 
52 1 38.0692 47.3006 4.84143 22.9302 345099 390594 -366204 -183816 114834 -55828.7 
72 1 36.5777 49.8126 4.6742 24.1183 415460 572194 407567 -46327.2 12338.7 15694.6 
56 1 40.9635 47.2574 4.83512 21.6607 383886 460373 -59048.3 -67926.1 -3298.2 -133347 
73 1 39.4579 49.8198 4.73529 22.6497 321923 303989 -176113 -92667.7 -67931.7 -37497.3 
60 1 43.8302 47.2214 4.85094 21.688 -169.437 136570 -111052 -196750 23872.6 -128688 
74 1 42.3342 49.7874 4.69533 23.332 536674 291472 76358.1 -117415 122781 -138468 
64 1 46.6559 47.1959 4.78065 22.89 41793.2 375839 -255722 14082.4 -146132 -35426.9 
75 1 45.2499 49.7017 4.67641 24.4678 624492 273326 13711.2 75258.4 -53749.1 -236132 
68 1 49.5312 47.1508 4.73815 22.6831 175141 212599 -64014.5 -136478 70367.9 71250.5 
76 1 48.1443 49.7004 4.66088 23.7839 490721 376365 315338 -89914.9 -90313.3 -102545 
4 1 48.0849 31.5849 7.14462 54.1012 434035 238438 287977 -79687.5 -177162 53424.2 
11 1 40.955 34.3025 7.40698 82.7449 230162 252119 91322.5 -380595 -148718 43482.3 
1 1 43.811 34.0956 7.23965 27.2213 630505 156160 272992 -264322 -173139 -30287.5 
3 1 46.7122 34.0894 7.23184 9.87584 -439925 -602863 -113156 16467.8 69951.1 -257556 
5 1 49.5462 34.0028 7.01224 7.85314 -157507 -343568 244121 256881 -44325 -26350.6 
6 1 36.592 36.7051 7.21206 98.5299 194141 212747 183330 -21876.1 63217.2 180862 
10 1 39.387 36.6325 7.19879 23.2192 242268 -209178 80033.5 -91112.6 -246502 -93030.4 
14 1 42.4115 36.5702 7.20469 7.08418 -159048 -639282 -118176 -342721 14906 -110361 
18 1 45.3077 36.4843 7.18569 7.64458 -634637 -696869 -650449 -84559.8 -203086 -167949 
22 1 48.1458 36.49 7.15895 7.35469 -553222 -422958 -260287 -158144 -40226 38088.2 
25 1 35.262 39.1002 7.24644 37.1882 36154 426156 -235664 -252066 -117755 -81270.4 
7 1 38.0591 39.0569 7.11147 7.52571 -236614 -186107 399636 -155376 -240512 -178146 
9 1 40.9336 38.9737 7.16959 7.74094 -440272 -434237 15850.2 -212056 -326561 14317.5 
13 1 43.8071 39.038 7.15548 7.25601 -556386 -389521 -198004 -150951 -92987.3 -11339.9 
17 1 46.6648 39.0017 7.18843 7.58054 -357228 -260853 -454689 -111010 -39760.7 37855.4 
21 1 49.5729 38.9651 7.06677 7.7422 -241704 -88701.5 9087.91 -33219.3 -14817.1 127814 
47 1 32.4562 44.0273 7.21973 39.2342 129993 503548 57847.5 -150512 73970.3 -58011.8 
23 1 33.8805 41.5822 7.218 37.8819 -325930 591051 -338283 -384175 -149082 -183485 
24 1 35.247 44.0787 7.10714 7.77887 -170029 -59538.6 170298 -193139 -26278.1 37739.5 
28 1 36.6045 41.6019 7.11798 7.60056 -667040 65484.5 181211 -215300 62299.2 -114346 
27 1 38.1335 43.9748 7.24789 7.65516 -488899 -368520 75185.2 -218398 -181030 -5286.97 
32 1 39.4853 41.5031 7.13249 7.63432 -380228 -328322 400447 -104557 -371397 71857.1 
31 1 40.9427 43.9362 7.11344 8.00025 -517649 -101624 122235 -160179 -308027 52066 
36 1 42.3361 41.4525 7.1664 7.75394 -507711 -403209 61339.4 89314.1 -89425.6 44968 
35 1 43.8219 43.9549 7.13122 7.75488 -480338 -329717 -208424 180421 76449.3 -37461.9 
40 1 45.1946 41.4993 7.20248 7.37678 -399309 -584276 -220155 71437.7 -60989.4 51136.3 
39 1 46.6712 43.9498 7.14469 7.57961 -144156 -401079 103611 -94129.9 -68721.5 -21771.2 
44 1 48.1121 41.4489 7.15845 7.67773 114235 -306773 -26398.6 -49835.3 -100847 107609 
43 1 49.6185 43.8802 7.04497 8.06813 86754.6 -143953 139380 -172195 125080 183654 
45 1 31.1183 46.4055 7.30913 90.3602 -366841 394185 32703 30692.3 158360 -167926 
50 1 33.7857 46.5778 7.11145 8.1654 -497963 398938 293238 -269020 -173701 -7722.42 
54 1 36.6718 46.5288 7.15141 7.7612 -505356 -244888 -215694 -556883 3489.9 -32551.1 
58 1 39.4858 46.5056 7.18944 8.30191 -437273 51952.2 4179.21 -145389 -125998 88932 
62 1 42.3692 46.4282 7.19362 8.05492 -126916 -161611 -373162 -140341 -16388.6 140559 
66 1 45.276 46.4411 7.20578 7.8045 -702927 -701694 -219511 -207883 -20775.4 132852 
70 1 48.0887 46.3917 7.04785 7.89215 -503066 -178251 -57050.9 -51107.3 59030.5 175213 
46 1 32.2762 49.0669 7.23785 23.0826 387552 893086 207356 -66198.4 -148872 -12796.5 
49 1 35.1595 49.077 7.1157 7.72163 -232701 -162214 -29453.4 -153769 -429550 195578 
53 1 38.0204 48.9942 7.08413 8.05541 -273494 -534710 4312.46 -210154 10631.9 -107833 
57 1 40.8871 49.0083 7.04048 7.99213 -159273 -470588 -14085.2 -37784.5 -28246.8 -34529.1 
61 1 43.8066 48.9067 7.10895 8.12526 -187903 -131269 11094.3 -43796.6 -79850.9 -310199 
65 1 46.6322 48.8463 7.07427 7.45197 -208442 -712304 51657 30298.6 -5504.79 -70970.3 
69 1 49.5659 48.8742 7.06534 7.87589 72618.7 -122316 227021 43405.5 36185.4 -7594.68 
78 1 46.7213 32.3856 9.53675 26.7432 655293 441958 734565 -49630.4 -102540 85848.8 
80 1 49.5473 32.2786 9.42636 19.8973 608898 348688 256918 23480.4 91625.2 -142818 
87 1 42.4314 34.8323 9.62183 17.8347 -192411 22331.9 -43900 -119200 -283109 -154993 
91 1 45.2377 34.8498 9.54323 10.1296 -244243 -374951 -575451 14188.9 -127379 57217.2 
95 1 48.204 34.8543 9.55753 7.35499 -89762.6 -258239 -393872 64228.4 -228496 286965 
82 1 37.9328 37.371 9.57758 16.8745 418463 -22261.9 613208 -156357 165089 -193455 
84 1 40.8354 37.2337 9.49384 8.1056 526841 512495 70964 -164286 -63931.9 39021.8 
88 1 43.8185 37.3164 9.53744 7.84539 93195.3 -273891 -182911 108850 -253887 -97467 
92 1 46.7209 37.2771 9.49034 7.20718 -275508 -116831 -581491 64103 -225495 140617 
96 1 49.6331 37.3031 9.44565 7.25721 -86647.7 -150439 -216743 -38518.8 -256106 -64378.7 
101 1 36.5127 39.8469 9.52521 12.5721 -13514.1 539158 435445 -289775 -180770 -86200.5 
105 1 39.3264 39.7947 9.53738 7.12666 -53607.5 94432.8 -136034 -258144 -171456 -44177.5 
109 1 42.3047 39.7429 9.50564 7.18193 174965 47067.9 -459429 29870.3 -30646.3 61170.4 
113 1 45.2623 39.8101 9.50553 7.3043 -5992.66 -197634 -581899 12367.8 -27799.1 43703.9 
117 1 48.1679 39.8105 9.45812 7.36663 41842.1 -89832.1 -288185 -46664.3 -248050 259433 
99 1 35.0675 42.4214 9.4726 13.0707 322969 613337 186125 -286574 -79356.3 -191863 
102 1 37.9279 42.328 9.56472 7.30724 233203 52964.2 -204844 -78698 -122937 6518.64 
106 1 40.8648 42.273 9.55891 7.98079 120721 175477 41100.3 -98528.4 4378.61 9655.65 
110 1 43.7499 42.2521 9.49887 7.50948 -130509 -20468.7 -294646 136069 -43260 -41274.7 
114 1 46.6892 42.3048 9.5145 7.82809 70150.9 -240697 -90491.7 -76188.1 -31496.7 63585.1 
118 1 49.6153 42.2497 9.46845 7.59943 -111213 -7084.03 142622 614.853 -347730 56690.4 
123 1 33.7242 44.9863 9.49094 11.4514 166174 149027 432568 -211713 51658.8 31609.8 
127 1 36.554 44.9289 9.54636 7.50144 80859.3 -16998.7 -55715.9 2799.34 -82328 -106485 
131 1 39.4835 44.8322 9.55505 7.69684 28076.1 269553 -338223 -75437.5 -246365 -125114 
135 1 42.3204 44.737 9.44426 7.61285 -216907 -34983.6 -190523 -95797.6 -101898 53022.1 
139 1 45.2153 44.7597 9.51441 7.60544 8538.37 -37305.8 -73856.1 128323 -79627.6 36131.6 
143 1 48.1162 44.7555 9.48145 7.96007 167515 -52788.9 429750 -206142 -166447 -26748 
121 1 32.2912 47.4493 9.55584 16.5652 22035 -51156 153859 -69715.3 -156264 151832 
124 1 35.1406 47.4447 9.46605 7.35121 -250811 -458755 138750 -111142 -170494 -122986 
147 1 33.6703 49.9074 9.54574 9.65369 -54024.7 -180344 33641.9 -55590.8 -54329.3 -216057 
128 1 37.9788 47.4061 9.49828 7.4189 -98552.1 -281746 -292265 -280827 -130799 -230049 
148 1 36.5366 49.9018 9.47569 7.51145 -111066 -488141 -66880.6 -19431 -192553 -245990 
132 1 40.9285 47.3595 9.47187 7.57801 62330.1 83192.9 -101409 -105901 -65750.4 -285488 
149 1 39.4228 49.8409 9.44887 7.95145 162665 -305280 165472 -102288 -89210.9 -4500.31 
150 1 42.3769 49.8166 9.43527 7.80494 -24723.1 -124276 164032 132908 -50252.6 18190.7 
136 1 43.7868 47.2453 9.50623 7.93294 -101652 -103837 -603733 42887.2 -46059.3 -243091 
140 1 46.7389 47.2712 9.46366 7.39444 -138213 -37824 -268142 -55248.3 -195369 49282.7 
151 1 45.2185 49.7802 9.40349 7.55607 -285899 94429.6 -169650 45751 -57004.8 -228786 
152 1 48.0967 49.7758 9.42639 8.00539 -55575.1 86965.6 225178 -107688 50480.7 16758.1 
144 1 49.5736 47.2404 9.4913 8.15828 -218292 -94484 89863.1 -28262.9 120349 20378.3 
77 1 43.8292 34.0431 11.9038 24.4169 210155 441463 229930 -227348 -159452 -29132.5 
163 1 42.3815 34.788 14.2705 25.1204 59789.5 561579 752256 -146385 -21602.7 49075.7 
154 1 46.3587 32.4896 14.0604 46.2769 772108 -134125 453240 251258 149516 162665 
79 1 46.6619 34.0886 11.8271 11.9598 -156470 -152404 -264696 -169636 -117695 228779 
167 1 45.1389 34.8944 14.2432 9.45601 -700398 -959898 -135936 254500 -159430 76036.7 
81 1 49.5524 33.9498 11.7938 11.5086 521312 300218 377765 -211488 -377036 202664 
156 1 49.201 32.3738 14.1306 39.9354 1.05575e+06 343844 560286 221831 51454.7 62035.4 
171 1 48.02 34.8872 14.2195 7.88301 7322.24 -359453 96780.8 197621 -15989.3 20969.9 
158 1 38.0752 37.4092 14.2681 26.416 -55839.7 -230518 270989 19924.9 55578.3 -50163.2 
86 1 39.4013 36.572 11.8966 27.4239 478476 149070 629289 -124827 70999.3 29753.1 
160 1 40.8808 37.3033 14.3009 10.4777 -120947 192031 137620 -118848 56233 -179820 
90 1 42.3411 36.5179 11.9346 10.135 445547 332055 419682 -141791 44822.6 -179892 
164 1 43.738 37.3381 14.3178 7.81847 -257752 -182691 101770 312584 -164812 -174846 
94 1 45.2366 36.5615 11.8702 7.37831 -370330 -33727.1 -39192.3 138804 -158885 54317.1 
168 1 46.6155 37.3324 14.2766 7.54772 -211457 -240776 53003.6 102373 -110722 -9622.32 
98 1 48.0474 36.5747 11.8394 7.10663 -304577 -26833.9 -139019 -165741 -239320 -3109.15 
172 1 49.5334 37.344 14.2101 7.97691 36817.7 -363620 138810 144179 -175732 50427.7 
83 1 37.9659 39.0012 11.9115 13.1361 -174389 -141285 -263488 -214485 150265 -85995.7 
177 1 36.6013 39.7962 14.2305 20.1718 111572 271662 224986 110810 57874.2 91997 
85 1 40.8508 38.9801 11.8009 8.19323 -73018.9 -216249 55157.4 -24175.4 112035 -1753.69 
181 1 39.4702 39.8431 14.1959 7.82795 -188827 -529896 -27264.9 -217617 -147037 99659.8 
89 1 43.7771 39.0347 11.8463 7.58068 -147959 -211464 42919.3 148432 96205.3 -131623 
185 1 42.3425 39.7976 14.2103 7.83013 -107444 -282848 -32199.9 181115 61256.8 88502.9 
93 1 46.65 39.0938 11.8526 7.21551 -194338 -224363 245411 463.975 -144078 24624.6 
189 1 45.2458 39.8509 14.2774 7.68974 6919.44 51658 63536.7 56635.2 -41986.7 102548 
97 1 49.5651 38.9858 11.7567 8.06001 -9605.94 68025.4 101232 -219924 -154947 -3394.79 
193 1 48.1376 39.806 14.2425 7.35291 -68.4531 -130072 -9685.38 -20525.6 -57613.4 36845.2 
100 1 35.0561 44.0164 11.8907 13.1564 286355 469199 654099 -197113 100496 -167702 
175 1 35.1776 42.3185 14.3619 25.2407 40769 181618 243590 -282809 -72223.8 -192754 
104 1 36.5189 41.5155 11.9357 13.1325 132290 294683 626172 -312541 133004 68417.1 
103 1 37.9691 43.9485 11.8572 7.79435 136883 -84432.3 27826.9 -126870 -72590.4 -152567 
178 1 38.0131 42.313 14.2985 7.76311 -289515 -70177.7 242107 166639 -163702 58552.7 
108 1 39.3932 41.4396 11.8729 7.81837 -101376 -433271 -347159 9515.8 -29886.9 141511 
182 1 40.875 42.2775 14.2258 8.022 -514760 -247927 -280804 -116292 37844.3 100958 
107 1 40.8424 43.9663 11.909 7.79865 -105001 -31758.4 -89223.1 69151.6 -101760 36611.8 
112 1 42.2941 41.4495 11.8855 8.03292 -191831 -247543 -199144 125681 -36798.2 87177.8 
186 1 43.7215 42.3318 14.2452 7.91886 -210749 -107156 -156203 -31396.3 141462 187891 
111 1 43.7256 43.9846 11.8928 7.9174 35447.5 -151337 100700 330675 26072.6 36690.7 
116 1 45.1724 41.5253 11.8473 7.64375 -211683 -270822 129911 135589 -52403.1 -1425.84 
190 1 46.6372 42.3476 14.2566 7.92376 87147.1 -92151.1 -308678 -12255.6 -98547.9 44272 
115 1 46.6569 44.0098 11.9027 7.79905 -55415.3 -205814 -77498.9 119939 -31578 -9505.79 
120 1 48.0664 41.5128 11.9077 7.58207 -46663 -338401 176441 -265898 -165418 18110.5 
194 1 49.5704 42.2873 14.2123 7.59887 26564.2 21810.9 -489025 -162247 -99301.2 323700 
119 1 49.5451 43.9175 11.8813 7.90966 99056.4 -106437 85496.5 -17421.9 -76640.3 1756.5 
126 1 33.5595 46.5203 11.9395 12.5259 164532 189377 -20428.8 -85125 -152269 -83163.2 
199 1 33.6621 44.8264 14.2046 20.329 186842 155901 116413 -210578 102201 -11687 
130 1 36.4958 46.4938 11.8711 7.74429 200223 -159009 -148113 -20583.8 -54688.9 -403334 
203 1 36.5259 44.7544 14.3124 7.77034 -101108 -154955 264739 -101832 4158.2 27055.2 
134 1 39.4081 46.4717 11.8498 8.09101 190768 -107952 -73254.9 56571.3 -5858.38 -210732 
207 1 39.4152 44.8144 14.2369 8.11742 -38624.8 -59305.2 -30155 -43613.2 -72125.4 1529.95 
138 1 42.3349 46.4202 11.8349 7.74003 292965 -190120 326685 63862.6 126586 145656 
211 1 42.3186 44.8037 14.2584 7.68674 -159867 -31608.7 -314351 177832 130633 7422.68 
142 1 45.2778 46.5003 11.842 7.97421 -23658.8 -98367.8 49164.3 129075 -223825 60456.1 
215 1 45.2016 44.8334 14.2107 8.01836 94338.4 207474 85269.3 45089.3 83927.7 -30516.4 
146 1 48.1405 46.4798 11.8413 8.11182 -28730.4 14285.7 -143413 -92551.7 95153.5 97827 
219 1 48.1236 44.833 14.2175 8.01603 -170889 -9025.91 -249714 -20471.1 -7387.63 -79926.3 
122 1 32.2513 49.0498 11.9026 27.154 -87484.2 390631 186990 -110595 -219026 -224340 
197 1 32.2676 47.3413 14.2595 29.0876 -308281 -84552.8 153632 -100887 104132 -126810 
125 1 35.075 48.9532 11.8901 7.71144 -200828 36986.5 -260504 238735 -53886.2 -192516 
200 1 35.0603 47.2656 14.2312 7.32391 -607191 -92395.3 -358092 -49364.2 84262.8 159820 
223 1 33.6307 49.7392 14.1895 9.02781 -183781 165011 -137553 -56938.2 -145801 -95207.1 
129 1 37.9469 48.9661 11.8429 7.77111 -583.681 -117016 -388222 51384.7 30912.6 -187814 
204 1 37.9361 47.2984 14.1695 7.78041 -2211.18 18044.6 -196612 60977.7 -37226 -62415.9 
224 1 36.5442 49.813 14.1531 8.13429 84380.6 189212 33290 209725 -23325.8 -207960 
133 1 40.8675 48.9474 11.8323 7.9613 214214 158966 -75186.3 -13556.3 39514.1 -220296 
208 1 40.8558 47.2882 14.2012 7.86246 48028.2 -14272.9 -205190 2247.06 -48516.7 62209.8 
225 1 39.4455 49.8082 14.1309 8.12746 -67622.2 8661.33 -273841 46555.1 -94346.8 -46672.4 
137 1 43.7643 48.9199 11.7541 7.61152 26365.9 -82937.3 -179839 60041.4 -45433.1 -137519 
212 1 43.7608 47.3802 14.2496 8.00858 231904 -244764 15554.1 -5692.62 -46150.9 -82938.1 
226 1 42.3415 49.8314 14.1303 8.12616 -341136 -332037 -244326 178966 -116332 -11537.6 
227 1 45.1756 49.8192 14.1383 7.50926 -45937.3 -59636.4 51270.4 -67908.4 239908 42973 
141 1 46.6617 49.0218 11.8021 7.85852 -2382.3 -236027 30529.7 52964.5 56991.6 64875.2 
216 1 46.7033 47.3392 14.1569 8.07398 108140 152036 -72611.8 78703 -104706 -53698.4 
145 1 49.586 48.9585 11.8013 8.16582 120076 133235 -118829 -157235 56007.2 -22053.7 
220 1 49.5811 47.3391 14.2135 8.1741 -94570.1 -195136 -316993 -79658.1 76199.8 -136790 
228 1 48.1419 49.8633 14.1508 8.14646 301717 -120950 -9662.04 2003.53 -100291 -2066.73 
153 1 43.8235 34.1802 16.6569 22.0799 -352851 -332095 435034 -164589 -43891.8 11915.9 
155 1 46.5934 34.0236 16.5068 11.9166 -198845 424807 330361 -102568 -120240 341279 
157 1 49.4664 33.9091 16.5605 10.1153 629645 871410 836366 20775.7 -126070 -15243.3 
162 1 39.458 36.5246 16.6284 27.2454 239606 344695 612167 -305272 -10139.4 66517.5 
166 1 42.2933 36.4722 16.6621 10.3796 -201607 -119608 83887.8 188946 -107747 65262.5 
170 1 45.2012 36.5837 16.6561 7.66549 -225927 -398963 -133841 -106466 -65778.6 133688 
174 1 48.0762 36.5529 16.5721 8.02685 79375.9 443138 -208773 -104760 -115616 -13619.9 
159 1 37.9577 38.9903 16.5985 12.9147 344819 364839 182774 -53412.5 -85572.1 -7751.95 
161 1 40.8676 38.9744 16.5829 7.8294 289461 -38945.9 -25008.6 -32777.4 -112025 -162066 
165 1 43.7823 39.019 16.601 7.7211 -140772 -208606 -238962 236005 22440.9 -173268 
169 1 46.6491 39.1107 16.6015 7.33569 -188850 -79493.8 -347436 -4290.22 -115388 78022.2 
173 1 49.5891 39.0156 16.5799 8.07379 81525.6 -59025.6 -76165.7 40112.3 -171565 83015 
176 1 35.0634 43.9886 16.62 12.9764 260706 97514.5 145074 -26365.8 199251 117337 
180 1 36.5288 41.4923 16.687 13.1863 230440 286575 49763.8 -39755.4 -103884 285568 
179 1 37.9736 44.0302 16.6784 7.70088 191446 60102.7 -363080 164283 -44873.4 281166 
184 1 39.4561 41.5208 16.5937 7.88828 196598 217260 -272553 31535.8 -117655 172731 
183 1 40.8604 44.0518 16.5506 7.89382 -104021 -74014.4 -353981 -85255.4 23950.6 243618 
188 1 42.3486 41.5 16.5389 7.80386 -195355 178636 -223861 5481.23 86775.5 212724 
187 1 43.7673 44.0617 16.6134 7.8938 141936 100222 -97772 141728 -59956.7 -6402.05 
192 1 45.1847 41.5651 16.6361 7.90708 -187857 -155736 -53230.1 100208 52325.2 40146.5 
191 1 46.7116 44.0098 16.5765 7.99236 -24462.8 -128328 -317111 -74850.3 -73358.8 -87576.7 
196 1 48.1226 41.5571 16.4966 7.98258 -144829 -287468 -386171 6853.7 57492.4 59462.3 
195 1 49.5783 44.0425 16.5807 8.18902 -377661 -119882 -338342 81349.4 154983 -16934.3 
202 1 33.702 46.4804 16.5533 12.8056 -251742 107331 247656 59211.4 127771 58710.7 
206 1 36.528 46.5238 16.5955 8.19201 -83701 30389.8 53031.5 -25858.8 -49103.4 42885 
210 1 39.4495 46.5522 16.5612 8.05367 -315045 -244441 37001.6 77762.8 130212 -41327.4 
214 1 42.2752 46.5354 16.5642 7.75958 -212373 -109865 -356195 138514 191525 19406 
218 1 45.2214 46.5788 16.5712 7.97528 290529 91982.3 132017 -51043.2 -66631.4 -8357.77 
222 1 48.1624 46.5453 16.5095 7.9761 42176.3 -394456 -572344 -49865 23599.5 189555 
198 1 32.3145 48.9219 16.6369 26.7183 -147336 276375 148509 80720.1 -65045.8 109964 
201 1 35.0871 49.0722 16.5745 7.815 -336505 244987 121833 144197 -47410.6 73198.9 
205 1 37.9705 48.9728 16.5246 7.76546 -133818 -292923 23592.4 109220 34495 108161 
209 1 40.8386 49.0425 16.4876 7.64567 -80992.2 -531795 -42794.5 122528 11096.6 37194.1 
213 1 43.796 49.0533 16.4895 7.94251 20857.5 -411411 -431946 171032 93922.7 -201227 
217 1 46.7018 49.0067 16.5536 8.16696 48024.2 -138777 -29696.1 -47834.6 112245 -111200 
221 1 49.6143 48.9975 16.4439 8.15811 -109873 -341295 -410465 -49664.8 -66162.5 -100285 
239 1 42.337 34.8989 19.0626 26.5232 285681 -37179.8 522561 -238358 -54843 2156.2 
229 1 43.7747 34.0448 21.3553 27.1303 330626 472262 422811 -178628 -158762 -13871.5 
230 1 46.6252 32.4603 18.845 41.1547 638840 157956 499785 -263797 -18204.9 42259.4 
243 1 45.1674 34.9544 19.0232 10.2873 -32235.6 -187973 -160927 -16733 -246235 -64522.9 
231 1 46.6326 33.9752 21.2669 11.6078 302842 476582 151440 -141186 -29028 158411 
232 1 49.4388 32.4538 19.0029 36.2324 809236 -63966.6 307966 185305 -32234.5 -44253.6 
247 1 48.0227 34.8357 18.9028 7.9348 -62397.7 -384424 167224 7762.4 83217.7 45258.3 
233 1 49.5255 34.0651 21.3011 11.9438 -15419.4 -38218.7 172203 -114924 -107658 -170890 
234 1 38.0044 37.4922 18.9733 27.4417 242761 -96217 528063 -52504.9 48926.5 -37713.8 
236 1 40.8272 37.3627 19 10.207 2101.8 170793 368268 -100943 -10028.3 -101687 
238 1 39.4506 36.6327 21.4617 25.6994 306920 49539.9 744832 -199220 122770 -112428 
240 1 43.6608 37.3488 19.0029 7.33175 -109435 -311720 -141125 28081.9 -101540 11307.7 
242 1 42.3243 36.5197 21.3949 10.1072 75510.9 351153 -324850 -86917.4 68386.9 -152533 
244 1 46.6846 37.4308 18.9585 8.06326 162000 -144019 -226808 -27670.6 -129879 28402.6 
246 1 45.2006 36.5864 21.2893 8.06845 -12753 452128 -419804 -5488.2 3011.73 -211938 
248 1 49.5544 37.3674 18.8886 8.11332 63629.3 -43457.9 -91046.4 191430 -102628 53121.9 
250 1 48.0613 36.5406 21.2661 8.01205 -69693.3 242480 -232632 127814 -102093 76889.8 
253 1 36.6035 39.9264 18.9764 20.4308 88537.6 271221 156664 15765.5 -35324.6 294689 
235 1 37.992 39.0252 21.3212 12.6647 197124 504008 324034 28271.5 88283.1 -109421 
257 1 39.4298 39.93 18.954 7.63357 -142265 66201.8 218319 -121902 30038.8 104469 
237 1 40.8646 39.0431 21.3407 7.51899 189486 8620.61 54718.8 -50376.5 162049 -135087 
261 1 42.2777 39.8661 18.9003 7.66128 -121118 187539 145981 38552.5 -96537.2 124306 
241 1 43.7856 39.1653 21.2563 7.38932 -258287 -99111.5 -386401 -88638.3 57177.9 -42123.6 
265 1 45.1764 39.8779 18.9545 7.36436 -118321 -15455.4 -723655 168477 143748 63957.5 
245 1 46.6561 39.1359 21.283 7.89255 -145766 -142186 -395312 -14204.1 76424.3 -69647 
269 1 48.0879 39.9127 18.931 8.14419 48887.9 -395454 -148790 -145197 17905.3 -260949 
249 1 49.6266 38.9989 21.2833 7.62371 315501 -108405 -93747.8 -85785.1 -88586.9 49971 
251 1 35.1664 42.4873 18.9872 19.0008 73121.9 74996.5 16670.3 -19589.5 -3988.26 65915.2 
254 1 38.0128 42.4729 18.9637 7.74361 -188391 -310640 -280914 -17125.5 -1969.27 370184 
256 1 36.6217 41.6756 21.3305 12.6957 -28111 284666 145817 -251737 57353.9 102958 
255 1 38.0846 44.1244 21.3888 8.00994 -519071 -297077 -429817 -9958.87 143493 158086 
258 1 40.8847 42.4453 18.9095 7.75375 -158709 -315392 143248 -33583.6 37115.6 40851.8 
260 1 39.5046 41.6245 21.2996 8.19392 -311901 -33962.6 -52383.5 19531.6 47050.9 -40113.9 
262 1 43.7528 42.3706 18.9795 7.83353 87205.8 -56874.9 -315436 144684 -100392 -94816.8 
264 1 42.3194 41.58 21.3946 8.24593 -407152 -160411 -49107.1 211779 130900 52072.3 
263 1 43.8401 44.0539 21.2469 7.88303 180056 -288891 -400332 -10809.1 259568 20564.5 
266 1 46.7424 42.3943 18.9324 7.92459 -256910 -231328 -472932 274421 -167981 45150 
268 1 45.2072 41.5799 21.2389 8.28632 -301760 -895502 -584153 105135 -108488 82734.1 
270 1 49.5413 42.3885 18.9245 7.9857 -552030 -31258.5 -153611 -65523.8 137348 152001 
272 1 48.1463 41.5461 21.2144 7.66389 -11949.1 -514642 -842001 -143587 23853.3 18177.8 
252 1 35.1658 44.1197 21.344 13.247 -62891.8 51055 -437085 -15204.2 62685 -21073.9 
275 1 33.6983 44.8906 19.0328 20.0438 302523 201106 361663 106060 -80660.9 -58049.5 
278 1 33.6658 46.5971 21.3076 13.0485 203153 155917 -80924.8 -122454 -56460.7 25165 
279 1 36.5985 44.9523 19.0077 7.94845 166170 -374358 -165962 57589.6 250027 -167772 
282 1 36.6223 46.631 21.2429 8.04201 -2439.34 -222599 -409487 -2937.16 -96702.7 -187133 
259 1 40.8714 44.0709 21.336 7.49101 -339195 -220736 -312012 34185.8 -115249 81773.6 
283 1 39.5075 44.8896 18.979 7.71599 -428432 -290379 -70256.8 54242 -96638.8 -73421.8 
286 1 39.4977 46.633 21.2694 7.92358 -193632 -164968 -36919.3 22704.1 106885 -142782 
287 1 42.3201 44.9029 18.9213 8.32953 -323524 -189223 -27066.6 69968.3 63192.5 -19689 
290 1 42.3932 46.6306 21.2456 8.01824 -284926 110085 -291079 -15782.1 54342 30508.6 
267 1 46.7443 44.035 21.2269 7.74059 -123513 -278060 -269629 -31776.5 -149599 156763 
291 1 45.2292 44.8629 18.9409 8.26544 32987 129013 -248383 -57135.3 30514.3 50377.5 
294 1 45.2331 46.5609 21.2699 7.78087 -110157 -56468.8 -386146 13227.6 -2980.11 95856 
271 1 49.5792 44.0288 21.2662 7.70379 34648.7 -95039.1 13362.3 -99547.1 67157.5 -133118 
295 1 48.1481 44.9301 18.8195 7.68209 39783.4 -397503 -555131 68478.9 107407 -194619 
298 1 48.1649 46.5321 21.1841 7.59527 71865.7 -129355 -340756 20136.3 -196938 18012.4 
273 1 32.3509 47.4054 18.9404 26.8129 -344221 8361.3 156714 39347 -112619 335892 
274 1 32.3195 49.1157 21.2867 26.3611 17581.7 509971 440376 -112417 -15298.6 14344 
372 1 49.6059 47.3757 23.517 8.25357 -285419 -374574 -220826 -84099.9 -7409.7 34345.3 
276 1 35.1084 47.4307 18.9633 7.89823 -362640 -92631 -87343.1 72166.7 -4023.11 -23108.5 
277 1 35.1441 49.0792 21.2707 8.34388 -50345.9 -250078 -199394 63429.9 -111580 -44662.2 
300 1 36.6081 49.8796 18.8953 7.88225 23828.1 -500797 -211889 63961.1 -28297.5 -109990 
280 1 38.0376 47.4378 18.9197 7.91662 29032.4 -339148 -328521 -44178.4 86924.8 138884 
281 1 38.065 49.1083 21.2613 7.9941 -276366 -468550 -349491 77637.4 -27227.8 -5820.48 
284 1 40.9612 47.4071 18.8797 7.50724 -135109 -208928 -265176 190163 91853.1 -78974.5 
285 1 40.9391 49.1044 21.2355 7.87943 -304723 -326806 -228393 -46681.8 -8065.74 5311.56 
301 1 39.5041 49.8927 18.8822 7.79185 -48380.4 -426718 -171520 140680 67025.4 40054.5 
302 1 42.4164 49.899 18.8594 7.5852 -19305.5 -285286 -61947.1 -10107.8 92268.2 -20670.5 
288 1 43.8342 47.4194 18.9306 7.77729 -235077 -82434.7 -203320 75620.9 172486 20268.5 
289 1 43.8332 49.0952 21.241 8.01209 -139967 -333990 -483130 45490.9 40503.7 -96578.9 
303 1 45.296 49.8906 18.8376 8.01339 -235936 -277417 -179231 6053.37 71893.1 -27962.5 
292 1 46.7088 47.3779 18.9171 8.21259 -236048 -213259 -267090 194386 -151848 66129.9 
293 1 46.7371 49.0689 21.2174 8.16641 -130660 89139.3 -144813 17530 41266.1 9809.13 
304 1 48.1777 49.8833 18.8358 8.12667 -167875 -278889 -35780.1 68975.2 -119456 136958 
296 1 49.592 47.4231 18.8307 7.88069 -90316.1 -244763 -111478 -41168.1 85784.6 9829.82 
297 1 49.563 49.0828 21.2341 7.8653 -51796.8 -12299.7 -55493.6 68718.5 -33592.6 7534.72 
315 1 42.3855 34.933 23.7484 26.5965 344743 128243 602211 -50362.9 -41280.6 116797 
306 1 46.6514 32.4858 23.65 50.1788 477865 -127344 340600 33540.3 20682.9 29934.7 
319 1 45.2085 34.8588 23.612 10.9579 -151591 60071.4 244982 53384 -38936.1 -114550 
308 1 49.4693 32.4727 23.6362 30.1553 554103 -183870 213453 -61209.6 8070.2 -24698 
323 1 48.0452 34.9076 23.6216 7.64442 -124087 -669531 -40289.6 15460.9 14878.5 -111557 
310 1 38.0465 37.4672 23.742 29.1865 672093 490405 621728 47817.2 162834 -165551 
312 1 40.9867 37.408 23.7348 9.69679 93752.3 -162152 -90640 90207 -95963.5 -347708 
316 1 43.7781 37.427 23.6307 8.17448 -296523 209962 180005 -43549.4 -122815 -210984 
320 1 46.6898 37.4044 23.6195 8.0183 -150748 174502 -37535.7 171045 53038 -54723.3 
324 1 49.5158 37.3711 23.6081 7.67631 -152567 98588.6 -7151.26 -180481 52846.1 56968.6 
329 1 36.7182 40.011 23.6634 18.9159 228942 251688 355095 -143573 106788 -70560.4 
333 1 39.5748 39.9557 23.6627 7.40744 -256620 129238 -158622 164362 92837.6 -175846 
337 1 42.3825 39.9444 23.6883 7.89431 -586592 -185058 -391682 57312 24614.6 120630 
341 1 45.2118 39.9534 23.5692 7.95242 -195351 77275.3 -234042 78960.6 25706.2 -97958.1 
345 1 48.1074 39.9676 23.6202 8.01397 163285 -130304 28146.3 -171807 -47718.6 -21501 
327 1 35.2433 42.4923 23.6802 20.1367 53872.7 -198457 26344.9 -115740 74099.8 -84144.5 
330 1 38.1042 42.4815 23.6466 7.83532 -320610 -377614 -235667 -34935.3 -36366 151319 
334 1 40.9441 42.4694 23.6844 7.79899 -370910 -453877 -525552 21751.3 221980 69019.6 
338 1 43.8669 42.4639 23.621 7.7233 -119084 -203820 -440826 224866 -69151.4 97531.3 
342 1 46.7516 42.4821 23.5409 7.3916 -40038.6 -116060 -270903 110885 32817.6 168275 
346 1 49.6161 42.3531 23.5807 7.84298 -193118 66705.6 116135 -112349 -97069.6 205960 
351 1 33.7861 44.9326 23.6206 19.8682 -22224.3 247979 43506.3 -48537.6 151005 18571.2 
355 1 36.6193 44.9223 23.6539 7.93539 -319488 -360508 -416639 -107788 162699 -221055 
359 1 39.5632 44.9546 23.7054 7.65763 -96011.4 -346978 -395839 127336 36.5467 -311361 
363 1 42.4317 44.9351 23.5923 8.2854 -304446 -81731.3 44544.7 17965.6 -101646 -104995 
367 1 45.2974 45.0179 23.6402 7.46315 35362.6 -275073 -377893 -34960 46705.9 130101 
371 1 48.2277 44.9523 23.5901 7.48587 -228299 -307423 -88704 -231091 93321.4 -42057.1 
349 1 32.3289 47.4901 23.6568 28.5892 49425.2 443245 512315 -62375.1 -15074.2 24757.2 
352 1 35.1327 47.4402 23.6325 7.89637 -100896 168792 -257165 -164873 -191977 178936 
356 1 38.0729 47.4227 23.5767 7.83513 129352 89252.4 -229294 -31755.6 130824 74424.3 
368 1 46.7644 47.466 23.5629 7.69722 -150002 -168877 -214944 -114775 -32689.9 221069 
360 1 41.0032 47.479 23.6148 7.84874 -273405 -186133 -379166 136322 -130089 103336 
378 1 42.4503 49.9664 23.5305 7.66805 -365440 -456127 -425458 110952 -76886.4 18469.4 
364 1 43.8346 47.4802 23.5828 7.90195 -429819 -547492 -748511 169153 160657 -63576.8 
379 1 45.2985 49.9815 23.5483 8.14497 -191483 -118534 -185410 -4068.04 -8812 -20204.4 
377 1 39.5346 49.9218 23.568 7.89494 105090 -78482.3 -109569 122487 57558.3 -132098 
376 1 36.5929 49.9469 23.568 7.73179 352023 232146 -40991.2 -77568.7 83538.4 -132.767 
380 1 48.2158 49.9441 23.5806 7.72204 -414316 -6686.04 -586828 54638 -42099.8 113582 
299 1 33.6604 49.9133 18.9232 10.2358 58513.4 -181104 -243698 128213 28282.1 -138841 
305 1 43.8227 34.1197 26.0711 22.6776 192273 214983 620840 -99781.7 -160694 64964.3 
307 1 46.6394 33.9891 26.0307 12.7121 574799 399876 729577 -142318 34750.2 23145.9 
387 1 45.2474 34.9197 28.4156 13.0939 155375 36149.6 420608 -88520.3 -102638 -75041.9 
309 1 49.574 34.0172 25.9762 10.9556 203323 124182 133782 -162611 23311.7 19586 