ITEM: TIMESTEP
80000
ITEM: NUMBER OF ATOMS
5538
ITEM: BOX BOUNDS pp pp pp
0.259222 99.7408
0.0641917 99.9358
-8.26871 108.269
ITEM: ATOMS id type x y z c_csym c_2[1] c_2[2] c_2[3] c_2[4] c_2[5] c_2[6] 
19 1 47.8345 34.8857 5.02304 37.0101 381577 547579 -185009 59984 -90429.3 74985.6 
12 1 43.555 37.473 4.89722 23.6009 349799 576359 522812 -204440 -30878.6 -137508 
20 1 49.2709 37.4651 4.9405 22.7945 111750 465801 73965.1 113281 36074.4 72623 
37 1 44.9456 39.916 4.89179 23.5464 431321 389433 245325 -121982 199786 -26304.5 
41 1 47.9002 39.9286 4.88606 24.4065 592165 164147 459535 179535 111947 39490.7 
34 1 43.5281 42.4173 5.1326 19.9298 37755.8 51868.2 -716719 -66422.5 -138120 -42282.5 
38 1 46.534 42.3985 5.048 20.6154 485464 118873 -374640 22576.8 -34447.3 4066.58 
42 1 49.4141 42.3621 4.96091 22.2049 -155431 181833 55049.8 -15864.5 -62696.5 -41937.2 
55 1 39.2706 44.9151 5.05697 23.1495 240670 253314 45497.2 -145439 118980 -7409.65 
59 1 42.1235 44.9844 5.12518 20.6465 454596 495059 -96166.8 8996.34 -76134.6 -69358.9 
63 1 45.0305 44.9083 4.93878 24.7001 375391 780376 151752 -146248 10825.8 10023 
67 1 47.8477 44.8815 4.96243 22.8648 185084 287904 -102414 -204774 60809.3 75587 
72 1 36.2746 49.9304 5.07917 23.1339 48129.5 593123 285116 -9718.09 7197.08 -129261 
56 1 40.6267 47.4543 5.04112 24.0968 348921 358331 195302 -68999 89966.5 58623.4 
74 1 42.0235 49.961 5.08702 22.055 478684 125914 -193649 145096 -105951 -125511 
60 1 43.5505 47.5095 4.97825 23.5489 710114 493329 325799 -232524 -22766.6 -26759.4 
64 1 46.4508 47.4046 5.04914 22.4857 607626 449403 57386.9 -9870.89 66301.5 -26322.8 
76 1 47.849 49.9348 5.02138 22.3117 523100 412661 -164446 -250097 50964 -113780 
68 1 49.3724 47.3591 4.94372 23.4632 315193 359873 97536.1 -45830.9 -179646 -52931.3 
2 1 44.96 31.7561 7.68557 83.0459 357035 4639.24 238468 -40671.4 -19218.4 193472 
4 1 47.823 31.6438 7.44938 41.1596 755570 55294.2 -181907 210768 108002 -63982.4 
11 1 42.2369 34.9706 5.09595 62.1628 428931 800715 214638 -164855 18076.6 148824 
1 1 43.6313 34.1118 7.33559 21.2926 -416073 -130225 126073 -20698.4 -128593 154679 
15 1 45.004 34.8802 5.0325 39.4423 277067 610250 -103358 -59628.8 27310.1 25827.6 
3 1 46.4303 34.0331 7.31236 8.12673 -774716 -231346 -233168 35703 203358 -131787 
5 1 49.3064 34.0813 7.24242 8.22332 -537994 -40467.8 -123511 192866 22828.6 -145916 
6 1 36.5364 36.8552 7.45311 106.204 -66461.9 -54858.1 -26160.2 -128157 -109502 102696 
8 1 40.7558 37.6405 5.07204 33.8965 217246 10574.8 277448 -410735 -64399.7 -245316 
10 1 39.3169 36.707 7.47644 28.5728 191820 74584.7 184055 88440.4 -197117 -210164 
14 1 42.1982 36.5875 7.42438 10.1749 -129850 347053 215295 -153798 -215964 -360850 
16 1 46.4317 37.4254 4.91171 24.6254 443962 826158 353307 -8497.39 17192.5 9039.37 
18 1 45.0344 36.5927 7.30382 8.05832 -64297.1 -9012.36 301064 56436.9 197321 -127469 
22 1 47.9284 36.5964 7.28929 7.95798 -244862 -187802 -89002.1 154787 117902 9619.2 
25 1 35.1302 39.1887 7.39953 40.9677 320840 83614.3 172255 221903 112867 25071.3 
7 1 38.0102 39.1641 7.46294 6.7141 -431411 -359527 -209386 -277067 -61882.8 -17600.3 
29 1 39.2261 39.9537 5.06867 39.3263 463511 377884 96648.2 50698.4 92017.3 23682.8 
9 1 40.8023 39.1724 7.37477 7.2691 -532141 -260155 -28704.3 -257945 -167373 -373215 
33 1 42.1301 39.9906 4.90706 23.7118 92188.6 -390052 579409 -374086 74266.1 77441.1 
13 1 43.6804 39.0917 7.29569 7.26689 31259.8 -182257 499530 -218129 110073 -64745.8 
17 1 46.5827 39.0957 7.3013 7.26903 -477550 -181010 230807 -55143.2 167628 26928.9 
21 1 49.3734 39.0889 7.34043 7.9337 -690779 -160802 95315.3 -64413 53654.5 -218397 
47 1 32.2049 43.929 7.51352 42.5296 126628 530800 173256 -81991.8 120620 62647.3 
23 1 33.8078 41.5426 7.52916 34.4013 -59664.7 55751.8 188614 -258364 150800 25175.7 
26 1 37.8621 42.4684 5.03978 41.1509 323683 359582 398856 -97080.9 15883.4 52914 
28 1 36.5672 41.6987 7.48264 6.73957 -564097 -12881.5 88048 -261783 -334634 -178342 
27 1 37.9008 44.1422 7.4409 7.68594 -598369 -635780 157266 -391668 -172810 141249 
30 1 40.7191 42.4411 5.06144 23.0089 -94780.2 350140 -107344 79337.1 301775 188813 
32 1 39.4091 41.6921 7.35819 7.14334 -1.05533e+06 -473463 -210054 -329703 39523.7 -19298.2 
31 1 40.7042 44.1513 7.48394 7.96472 -496494 -644579 -361839 -173550 -47957.9 63882.1 
36 1 42.1848 41.6007 7.45584 8.3186 -1.03687e+06 -2195.3 -157828 -343021 25135.1 -15965.2 
40 1 45.0235 41.5288 7.287 8.09519 -622314 -371264 -514579 -151037 -337984 116372 
39 1 46.4605 44.0847 7.30428 7.80785 -706490 -511936 -513640 -134438 66745 -19642.2 
44 1 47.9174 41.5857 7.34094 7.52236 -325843 -392267 -522762 -4373.76 75488.9 14270.2 
43 1 49.3481 44.0519 7.27372 8.02039 -45899.6 -281168 -8711.4 -6662.84 -100560 44102.1 
45 1 30.7985 46.2247 7.71538 92.2946 -53527.8 336521 105363 85245.5 157022 -142043 
24 1 34.978 44.0528 7.53782 8.65276 -236766 -368887 9976.78 -103522 -102870 -103122 
50 1 33.5074 46.5009 7.57187 12.6159 -598493 -275793 -176517 224250 -79965.5 89213.9 
51 1 36.4049 44.8681 5.15797 37.5164 420610 608204 243747 96645.6 -128116 -11852.5 
54 1 36.3542 46.5794 7.47449 7.90101 -317828 -432892 -245079 -118978 -518909 75075.6 
58 1 39.2865 46.578 7.39776 7.70256 -195364 -736346 164042 -168466 -4781.55 -9425.95 
35 1 43.6674 44.096 7.34738 7.80722 -327934 -455887 -330266 -435751 -359930 -311740 
62 1 42.1468 46.6509 7.40826 7.83708 -378386 21337.7 50340 -47988.8 -51147.7 -217081 
66 1 44.9605 46.5394 7.32552 7.90567 -44501.9 -233187 364091 -306995 48795.6 119193 
70 1 47.9189 46.4711 7.3524 7.41692 -58025.6 -520096 -291944 -255723 -110829 -219728 
46 1 32.0329 48.8439 7.47831 23.2151 157656 94147.9 304888 731741 -70823.2 -136436 
48 1 34.9972 47.3561 5.19873 35.9834 256036 780767 67596.1 -85176.4 -288021 97493.5 
71 1 33.5289 49.9011 5.2298 48.0523 12548.3 666835 295061 -18897.1 -154248 9561.19 
49 1 34.8827 49.0488 7.51881 7.96328 -31497.4 70795.4 283031 171023 -218604 -41637.5 
52 1 37.7967 47.4334 5.0393 24.0744 107793 587004 341365 -97076.8 -34732.2 -84360.2 
53 1 37.7588 49.0153 7.45107 7.33935 -33602.1 -219883 81233.2 -35865.5 132424 185485 
57 1 40.6337 49.0819 7.45912 7.88547 -134006 -558924 -231801 40685.5 162099 130775 
61 1 43.5571 49.1677 7.34702 7.65289 -343196 -271747 186671 -50663.6 -124462 21606.7 
65 1 46.3897 49.099 7.34538 7.73575 -113210 87348.9 -16069.2 -336220 -50405.6 84561.6 
69 1 49.2988 48.9789 7.30455 7.90167 492033 -105253 35320.4 -20643.8 -20658.4 227945 
73 1 39.1427 49.9239 5.10322 21.6796 242764 37100 -11862.1 -108096 12316.8 -131701 
75 1 44.9784 49.9129 5.01568 23.0144 444746 355285 -92505.6 -200511 47356.6 78221.2 
87 1 42.1482 34.8687 9.77863 27.7322 925973 352121 827289 -275740 1687.44 -162885 
78 1 46.6427 32.3686 9.79689 26.0854 -25819.9 104930 -32927 8427.31 189504 -365968 
91 1 45.1002 34.8344 9.65937 9.82002 500673 544229 91447.8 56966.9 98031.5 -52510.1 
80 1 49.4085 32.4102 9.6572 18.2678 136378 -89797.6 100582 -12855.7 79007 -195544 
95 1 47.9802 34.8913 9.5921 8.03558 -335010 -123471 67289.4 -95610.9 64947.5 17677.1 
82 1 37.8889 37.4364 9.76025 17.1859 176807 119216 -202740 127220 77941.1 -150054 
84 1 40.7737 37.4229 9.74489 10.4295 -165171 -329371 -278452 -415555 -6780.62 -377358 
88 1 43.6164 37.305 9.67959 7.49573 -413884 -47972.4 -430613 114243 -205168 -311777 
92 1 46.5183 37.4462 9.65279 7.66463 142980 -166534 192612 170501 107857 -89615.7 
96 1 49.4194 37.3264 9.65929 7.92571 -634733 -421272 -164509 141754 -133178 -44338.3 
101 1 36.4613 39.9007 9.78285 12.3331 149024 456965 249695 30942.2 70399.2 125360 
105 1 39.3453 39.9837 9.79198 7.80858 -81236.6 17720 -114577 -47592.1 -154854 -100414 
109 1 42.2195 39.7799 9.78137 7.43817 -321256 -117189 -365861 -252259 -139115 134398 
113 1 45.1148 39.8449 9.67786 8.00936 -80727 -283535 38455.6 179103 27306.8 -156884 
117 1 48.0046 39.8867 9.67041 8.00607 -350162 -72572.1 -320919 -37676.4 15525.9 26144.1 
99 1 35.0542 42.4493 9.90682 12.5154 91626.2 131692 166958 -117129 16830.2 165905 
102 1 37.8838 42.4339 9.80007 8.03881 -251292 128613 -83665.9 -3358.35 -286892 -309257 
106 1 40.7337 42.4601 9.75134 7.64563 -99022.1 -261887 -279008 -255968 -59808.5 -126749 
110 1 43.6451 42.3623 9.7305 8.18895 -129219 299368 -27631.9 -220208 -173278 -38486.8 
114 1 46.4822 42.3525 9.55073 8.41989 -565823 -337877 -287938 -160534 257609 -203691 
118 1 49.3357 42.456 9.68734 7.37624 -109809 -319386 -11778.2 -275930 -91953.5 -168222 
123 1 33.5084 44.8974 9.84161 12.3878 88169.6 -153758 -90626.7 -96234.9 160448 297292 
127 1 36.3616 44.9638 9.84115 7.85741 13946.9 -446045 -35303.3 -162257 -185998 65519.9 
131 1 39.3325 44.9571 9.82706 7.36535 -426514 -302925 -471442 41520 105326 -266577 
135 1 42.1084 44.947 9.77102 8.07068 -441056 95337.2 249075 -343968 -274854 -44089.2 
139 1 44.9991 44.8507 9.68113 7.85023 -324189 175547 -108224 -195557 -104144 -107062 
143 1 47.8124 44.8473 9.71326 7.23496 -405604 -664834 -422817 -36126.4 49657.1 825.29 
121 1 32.0744 47.354 9.88981 16.0777 -266490 214079 16826.2 133487 -108042 236244 
124 1 34.88 47.3669 9.92009 8.06672 -343503 19024.5 -136992 -48115.8 -59801 -85794.5 
151 1 44.9235 49.965 9.74327 8.04021 -72414.2 -239265 132460 -243214 -56771.3 -234702 
128 1 37.7547 47.4295 9.77777 7.95561 22536.7 -308165 -32162.1 -138184 -273362 43820.7 
148 1 36.3909 49.934 9.8597 7.42914 396079 -181156 112380 -57185.7 -64116.7 -116223 
132 1 40.6746 47.4695 9.75831 7.60683 -169121 -803329 -190744 47588.2 42260.8 -16438 
149 1 39.2627 49.8837 9.79581 8.15733 -556026 -210502 -5959.45 413831 -54412.7 -211678 
136 1 43.5356 47.4374 9.78378 8.14242 303039 272732 379866 -148018 -250171 -131959 
225 1 39.2307 49.8531 14.4989 8.38191 276160 326513 270682 85243.6 -113373 16351.7 
140 1 46.5124 47.3766 9.64179 7.74896 -151906 -79209.5 -214563 38371.2 65386.3 -97087.3 
372 1 49.6069 47.2932 23.8062 7.85818 257893 226867 10182 66472.9 144177 192926 
144 1 49.3134 47.3556 9.61451 8.12508 -198952 70248.7 -143410 27987.7 -103899 64775.7 
152 1 47.8423 49.8763 9.73742 7.82995 161162 -290212 -171121 -183516 4224.91 97712.4 
77 1 43.762 34.0076 12.0557 25.8722 220231 266038 746785 -321410 -13286.6 -17186.2 
163 1 42.3124 34.7985 14.437 27.9113 478855 369453 349157 -152510 -135534 -68112.8 
79 1 46.5713 33.9958 12.0565 12.6649 -55898.9 -64077.2 116714 -172396 2004.87 -316506 
154 1 46.7697 32.3826 14.3934 40.4833 518319 108996 217478 -313609 28296.6 -211011 
167 1 45.1647 34.9098 14.3611 9.40294 157352 -435966 -561839 -327963 46245.2 -297470 
81 1 49.4646 33.9954 11.9769 12.0513 12744.7 67759.4 -13541.8 69085.3 176167 -41823.7 
156 1 49.5542 32.424 14.307 30.1323 478369 -127280 -225646 140921 -30626.3 -254955 
171 1 48.0539 34.8136 14.3795 8.08108 16207.2 -721135 -516415 -171740 33292.9 128637 
158 1 37.8935 37.4273 14.4796 27.2427 -384386 -570795 631451 -195985 51736.3 -172171 
86 1 39.2894 36.6253 12.073 26.4042 476200 253524 384024 -260944 -224674 68698.3 
160 1 40.6555 37.294 14.4445 9.58653 -19042.3 55311.9 -10306.6 26012.9 -361402 1255.2 
90 1 42.2463 36.455 12.0828 9.83841 244403 231038 88596 -346613 -149749 -175478 
164 1 43.6394 37.3413 14.3739 7.76369 255371 -157863 -452926 -135377 13820.9 -63386.3 
94 1 45.0956 36.4895 12.0171 7.96769 -158414 -180622 -236538 88531.2 -122708 78446.7 
168 1 46.5669 37.3182 14.3263 7.92501 -120919 -420888 -331870 -225574 185365 -103937 
98 1 47.9992 36.4406 12.0694 7.63067 -37813.3 -67176.2 -110160 69214.1 144580 -62911.7 
172 1 49.4396 37.3459 14.373 7.55005 31317.2 -158612 -32349.8 -34419.7 -10696.6 -213750 
83 1 37.876 39.1188 12.0796 11.9323 -188506 -325450 -7029.33 -200867 -228773 -51831.3 
177 1 36.3954 39.7641 14.5132 21.7876 268504 256763 535470 -31399.7 -77915.6 71671.3 
85 1 40.7861 39.0077 12.0703 7.3048 -151816 -93462.1 -777358 -317741 -104933 -168253 
181 1 39.2843 39.7596 14.4589 7.64093 -461728 -676988 -113946 -184221 -183218 227836 
89 1 43.664 38.9576 12.0336 7.92282 45860.7 -199185 -355384 21070.4 -226790 204452 
185 1 42.1193 39.8385 14.3625 7.86868 37355.7 133630 -126914 -61207.6 -64563.7 27280.1 
93 1 46.626 39.0082 12.0653 7.49799 120915 -18721.3 -197872 -65157.3 -31399.6 41361 
189 1 45.0837 39.809 14.4015 8.20768 194477 -440656 -135796 -94839.2 10182.1 19184.9 
97 1 49.4799 39.0568 11.9798 7.86009 -560395 -192676 -254239 41203.8 -68083.6 11411.9 
193 1 48.024 39.8347 14.4069 7.95362 -198400 -200013 -462570 95033.7 104949 3878.15 
175 1 34.9432 42.3371 14.5844 20.8979 218635 472297 351024 -410717 -144066 -49968.5 
100 1 34.852 44.1115 12.2067 11.3678 158396 245027 77640.3 -362135 -262007 -224685 
104 1 36.4082 41.5002 12.1946 13.3794 55007 354788 400184 -95455.5 -304468 7505.51 
103 1 37.8091 44.038 12.1332 8.17124 148576 69628.1 -179617 -21479.1 -40125.1 -272931 
178 1 37.7967 42.2492 14.5735 7.52236 -110471 71989.5 -64581.8 93859.3 -5270.46 -85077.8 
108 1 39.2726 41.5326 12.2349 8.27134 37803.7 -339363 -70068.7 -344824 -62548.3 -85939.3 
182 1 40.7291 42.332 14.5318 8.14049 81139 -255619 -413175 41374.7 -378621 69123.3 
107 1 40.6948 43.9865 12.1557 7.51406 97124 74806.4 -204800 -51498.2 -69417 -74431.4 
112 1 42.2175 41.5203 12.0904 8.17413 239640 71454.4 -21668.4 -132847 -43510.1 147029 
111 1 43.6135 44.0587 12.1087 8.20499 353122 494460 261797 -204798 -55367.1 9629.64 
186 1 43.6872 42.2881 14.4176 7.65772 -37828.7 293591 -136153 186344 -185754 104140 
116 1 45.0947 41.4527 12.0339 7.73445 95704.9 60347.2 -84023.3 -122452 -167511 -102528 
190 1 46.5279 42.2653 14.3733 7.79609 -205439 165239 -230870 34870.2 85398.6 -88635.4 
119 1 49.4121 43.9793 12.0429 7.28037 -125898 -326231 -187459 -50323.9 186107 -158634 
120 1 48.0086 41.5302 12.0876 7.90716 -183244 -508193 141633 -14813.3 344876 -75228.1 
194 1 49.4571 42.4227 14.4606 7.6924 62937.1 -334900 -269359 -199449 83906 181030 
126 1 33.4065 46.5759 12.2258 12.2136 -158054 156519 -168759 -147216 -64861.5 100342 
199 1 33.4911 44.9337 14.5992 19.1552 301376 99983.9 348364 -285284 -719.395 -26638.5 
130 1 36.2843 46.524 12.2673 7.75529 -170048 -402682 -410027 -231456 -247704 -160288 
203 1 36.3705 44.7244 14.4968 7.08526 -250184 -27875.4 -64032.6 -150726 -49165.2 35771.5 
134 1 39.1965 46.5325 12.1297 8.02905 213840 -48096.1 97004 -76441.1 55779.6 -260425 
207 1 39.2122 44.7835 14.4947 7.80543 -132818 204147 -63544.5 87225.2 -138273 -212272 
138 1 42.1007 46.5869 12.2307 7.86228 30545.3 166381 -343922 67189.6 -10993.7 -211645 
211 1 42.1148 44.7993 14.5058 7.53352 154950 -215405 -308916 -182954 -184614 58038.8 
115 1 46.5291 43.9468 12.0297 7.34676 37002.4 -63014.4 -49541.4 -148779 204113 188226 
142 1 45.0524 46.566 12.0489 7.96766 45075.4 115612 143097 -338702 53299.9 167530 
215 1 45.1318 44.8897 14.3783 7.88691 248749 215141 -18868.7 291902 -147067 59996.5 
146 1 47.8876 46.4765 12.0026 7.35454 -68760.1 -116420 -92106.6 90964.7 18037.2 4719.81 
219 1 47.9962 44.8786 14.3508 8.05759 -112251 277165 -20245.5 206661 197484 60816.6 
122 1 32.0121 49.107 12.235 21.6874 136727 723451 963238 -127534 67234.8 23895 
197 1 32.0935 47.4222 14.6015 27.534 -194360 153652 546783 -43899 57157.1 -63329.5 
125 1 34.8271 49.0594 12.2069 8.26354 -126513 -304510 409687 181200 67792.6 -171279 
200 1 34.8713 47.3448 14.5744 7.95602 -569406 27206.1 -88413.8 -174302 -85422.2 21257.9 
223 1 33.4608 49.8648 14.658 9.97434 -337944 -33756.3 -212544 -89752.6 66937.7 277967 
224 1 36.2975 49.8671 14.6375 8.21721 73727.5 95639.2 214123 -40883.1 73507.5 -195737 
129 1 37.6882 48.9874 12.2122 7.47296 201376 30855.8 122037 74515.1 -230915 89578.6 
204 1 37.7485 47.3035 14.5167 7.865 111505 357154 -402534 26455.8 -311672 211221 
133 1 40.6396 49.0249 12.1348 7.43255 -102162 -344786 -373738 133257 -15621.6 -27516.1 
380 1 48.1164 49.7887 23.7847 7.9752 196346 355068 -311732 133554 109432 -32305 
208 1 40.739 47.3085 14.525 7.46421 -61646.5 -78458.6 -701061 81919.2 288172 -69681.5 
226 1 42.1255 49.7774 14.487 7.45365 -1281.47 75627.4 -397430 -131102 86151.4 24630.3 
137 1 43.5076 49.0981 12.1398 7.59257 -188932 -143639 -384366 -17471.2 -30039.2 -139393 
212 1 43.6209 47.2512 14.4301 7.17647 -145462 -2887.7 -308095 86655.4 -333602 -147369 
141 1 46.4619 48.9736 12.0124 7.53276 -50644.1 -319315 -181949 -316663 324692 143054 
216 1 46.5985 47.4348 14.4267 7.10104 149912 -543160 -281416 262362 -218003 4981.09 
227 1 45.0814 49.7731 14.4029 7.40639 89339.8 311916 24857.2 267552 -228085 92027.9 
145 1 49.3155 49.0268 12.0504 7.56087 -46290 -59231.4 81782.7 345873 -82913.1 116107 
220 1 49.5076 47.4101 14.3875 7.35103 -403745 -64276.6 -50809.9 87296.4 200219 181737 
228 1 47.9781 49.8887 14.4534 8.19205 -303626 -96859.1 -245705 -153407 214096 194799 
153 1 43.7375 34.0026 16.6975 26.4693 579919 285352 818929 -454683 -77985.9 128910 
155 1 46.6666 33.9064 16.6699 10.5487 652326 -117389 -356978 -312152 58784.3 146779 
157 1 49.6093 33.8443 16.6152 10.4554 477881 213033 -133178 -148749 -160461 -5264.33 
162 1 39.2962 36.5622 16.8896 26.588 234404 169706 442791 -114874 -18767.7 -139993 
166 1 42.171 36.4926 16.6578 10.7382 281360 51198 -94430.3 -230992 -207717 -17338.8 
170 1 45.1539 36.3777 16.688 7.24958 581218 -70026.1 -100289 -119506 46532.8 -326684 
174 1 48.0845 36.4016 16.7498 7.21734 302686 251900 -123528 -269984 -22615.4 51781.8 
159 1 37.8313 38.9585 16.854 13.0132 164674 146378 -5785.06 -100065 -122298 -133688 
161 1 40.7719 38.9895 16.7617 7.60198 257688 -63978.1 -309888 98557 70297.9 61519.4 
165 1 43.6901 38.9053 16.7398 7.31174 494822 133330 -211643 -345864 112648 29057.9 
169 1 46.6467 38.9552 16.6693 7.47588 403214 476273 -230209 -190313 42222.1 24663.3 
173 1 49.5596 38.937 16.7334 7.33091 -123571 38788.6 -370897 21112.8 26756.3 30772.5 
176 1 34.8927 43.9726 16.9052 12.9506 151717 244943 -55113 -256440 -146552 -16222.7 
180 1 36.3304 41.4689 16.8933 13.3133 219805 246795 3771.01 -181197 51971.8 308745 
179 1 37.7926 43.9665 16.9417 8.17175 209480 161108 74745.9 18391.3 42417.3 132783 
184 1 39.2782 41.4846 16.8757 8.39716 234795 -126671 -520195 50544.5 -149294 569686 
183 1 40.6717 44.0268 16.8549 7.79048 99654.7 -230990 -259946 -428.074 5947.84 109959 
188 1 42.1738 41.5512 16.7731 7.70451 -90362.7 511309 -202683 51037.4 -283728 222621 
187 1 43.6485 44.0906 16.7543 7.7542 301492 216624 60430.5 4578.67 -308443 92533.8 
192 1 45.0377 41.4675 16.7332 7.63757 491018 503666 -229962 43321.7 -128777 158796 
196 1 48.0674 41.4928 16.708 7.59044 185231 239654 -390355 -114899 187671 853.573 
195 1 49.4825 44.0658 16.8222 8.33371 251576 144785 -314860 1521.89 416470 -99387.3 
202 1 33.4177 46.5393 16.9891 12.948 23652.5 423187 -173551 -284166 6441.63 -27231.8 
206 1 36.2846 46.4835 16.8588 8.00631 285114 426179 68322.9 -21653.6 3464.55 237416 
210 1 39.2222 46.4962 16.7714 8.44861 37816.3 25374 -98060.1 43943.3 -98970.2 -34654.5 
214 1 42.1149 46.4981 16.829 7.67769 -83991.1 -310556 -564898 168462 -181564 93965.2 
191 1 46.5802 44.0142 16.6773 7.88812 425749 455285 -150900 20563.4 -38453.9 321965 
218 1 45.0684 46.5599 16.7955 7.44705 85397.6 76733 -167962 -17457.8 68183.2 -86828 
222 1 47.975 46.5916 16.7134 7.52718 29294.8 239704 -368829 245385 67244.2 91398.3 
198 1 32.027 49.1188 16.9277 25.9843 -241522 420439 514691 -311672 197373 81391.6 
201 1 34.8055 49.0665 16.9828 7.6727 -121054 268419 -185284 -107912 -106115 148872 
205 1 37.7722 49.0008 16.9711 8.59249 446324 270019 32498.6 36695.2 -280678 196704 
209 1 40.6861 48.9992 16.832 8.01678 -32111.5 -115500 -570794 -53686.2 -41675.2 -4139.46 
213 1 43.5851 49.0186 16.7946 7.69315 182512 260632 -212446 329322 100679 105159 
217 1 46.5333 49.0617 16.7358 7.30853 226665 32964.2 -315166 89141.5 122589 -34174.5 
221 1 49.4611 49.1361 16.7984 7.52088 350712 95246.2 -65595.6 100660 242.951 238041 
239 1 42.2984 34.8961 19.077 24.9495 612242 -37168.2 673485 -514552 -13841 -206210 
229 1 43.702 33.9606 21.4296 28.0886 520261 535201 581505 -190807 141908 -18470.8 
230 1 46.5315 32.476 18.9842 37.1201 461790 -663526 26533.1 22409.5 65600.6 188849 
243 1 45.1748 34.832 19.1609 10.7553 -304268 -774718 24469.5 208282 -50417.3 -68290.6 
231 1 46.5943 33.9058 21.4283 12.518 316134 321975 -91707.1 34213.9 495.515 89490.5 
232 1 49.3879 32.3843 18.9108 30.2971 679302 -122443 -13177.8 -65655.3 59292.2 199364 
247 1 47.9665 34.8357 19.0654 7.15015 -290324 -595452 -244180 -217749 -215489 208503 
233 1 49.4853 33.917 21.3022 11.5198 710421 531246 199835 38209.4 91223.5 146364 
234 1 37.9178 37.3823 19.217 28.2744 48990.8 283549 132312 -9649.18 6749.02 4543.3 
236 1 40.7205 37.4311 19.1475 9.72967 55932.4 -124458 -191155 -71741 -252836 107566 
238 1 39.3604 36.5276 21.4772 27.1808 167317 389256 130326 -261772 -34953.9 -1447.59 
240 1 43.637 37.2856 19.0214 8.09004 50178.2 -194000 70472.9 -290048 101432 290633 
242 1 42.2116 36.4692 21.3751 10.4635 286816 403137 -79880.9 -311797 -27458.5 -51498.1 
244 1 46.5186 37.3377 19.0944 7.40129 42368.2 -406212 7737 -38535.3 29896.3 46236.3 
246 1 45.1662 36.4394 21.4162 8.12149 291281 -23331.2 -272909 34522.2 214475 -301431 
248 1 49.46 37.3349 19.0549 7.49728 428360 -79960.6 -232786 -70913.8 68841.9 16171.6 
250 1 48.0563 36.4818 21.3831 8.07785 323764 257445 -353222 -23638.9 -23459.1 -17997.7 
253 1 36.4326 39.8963 19.1878 20.137 354568 176381 -3624.85 -151370 -73453.4 210590 
235 1 37.8932 39.0796 21.484 12.5667 -397849 130208 263644 -371142 -123805 -117123 
257 1 39.3368 39.881 19.0687 7.79487 162409 -419506 -642266 153061 -106950 389417 
237 1 40.6776 39.0486 21.4858 7.54199 69733.7 146560 99848.6 88909 -158415 -185115 
261 1 42.2779 39.8854 19.1071 7.47407 338656 56080.9 309526 -133237 -44581 -128431 
241 1 43.7167 38.9109 21.4892 8.0128 488833 331513 94976.6 108616 5347.06 111558 
265 1 45.1477 39.808 19.0556 8.307 207841 469294 397969 267378 -169105 152643 
245 1 46.584 38.9769 21.4271 7.72331 58790.4 158393 -296696 -106017 -95251.7 -204788 
269 1 48.0369 39.7939 19.0284 8.38024 158748 98200.1 40150 -65069.1 9153.17 -58930.5 
249 1 49.5159 38.975 21.4222 8.2735 625796 301299 129215 -57671.6 209721 76912.2 
251 1 34.9313 42.3655 19.2205 20.621 266534 153215 197186 -184829 -8348.87 188546 
252 1 34.8873 44.0267 21.6225 13.3119 341689 513082 758664 -272513 104031 26446.5 
254 1 37.813 42.3673 19.2565 7.97209 117298 -293424 -503747 -117598 8837.42 268718 
256 1 36.4036 41.5467 21.5521 13.2982 -77050.5 -18936 119456 -340208 117720 165491 
255 1 37.7828 43.9926 21.6082 7.96664 311500 -265739 -53074.5 -225435 34536.1 -15277.6 
258 1 40.7639 42.3924 19.171 8.00792 193928 -91104.2 -89085.6 -28808.6 -35286 36641.2 
260 1 39.2747 41.5096 21.5103 7.80418 202526 -205503 220288 72082.7 -156641 99809.7 
259 1 40.7626 44.0383 21.5398 7.90271 206163 374199 -352003 -25875.9 -129067 -94745.5 
262 1 43.6541 42.363 19.1109 7.70149 231039 -101969 -63649 -392696 35410.7 15736.5 
264 1 42.2939 41.4793 21.4581 8.02813 396890 412982 -188724 -164639 22344.4 -98222.5 
263 1 43.6649 44.0552 21.4587 7.3653 136430 -108958 -313650 -52940.8 129789 38647.5 
266 1 46.6542 42.4566 19.0119 7.62727 331177 -95635.6 -25020 254822 -23357.9 98012.7 
268 1 45.1731 41.5923 21.4376 7.72399 -136431 637042 316826 92534.8 134384 -161058 
267 1 46.6657 44.0131 21.4342 7.93714 217197 -3634.37 191858 -107781 9199.51 -210463 
270 1 49.5206 42.2928 19.1015 7.87246 -278413 317803 -547913 125423 197936 -36500.2 
272 1 48.0117 41.4917 21.3608 7.66845 118616 245393 222789 99964.3 178016 114126 
271 1 49.5529 44.0226 21.389 8.37048 277875 274201 -76159.3 168838 65783.2 -33315.4 
275 1 33.3872 44.8202 19.1936 22.0832 487589 665967 534117 -164303 112173 240205 
278 1 33.4107 46.5459 21.6404 13.0057 302242 793683 682896 -247590 94843.1 129105 
279 1 36.2683 44.8365 19.2215 8.02818 342427 -209490 -26965.7 66636.7 29752.4 -105951 
282 1 36.3021 46.5341 21.5728 7.97728 13026.8 80898 -78851 -117562 -384227 97092.8 
283 1 39.2778 44.8429 19.283 8.16792 230214 -169200 -179714 4265.55 -108152 -254386 
286 1 39.1904 46.4874 21.5359 7.26213 180000 -251616 -301321 153869 -123936 -130177 
287 1 42.175 44.9061 19.1638 8.20546 132573 -191173 -144410 -111360 -106045 209886 
290 1 42.1755 46.5595 21.5341 7.37389 338753 110497 -212378 15693.7 145189 -184461 
291 1 45.1092 44.7925 19.099 7.65559 87911.8 -253209 -51548.7 97930.9 -32245.8 -81512.7 
294 1 45.1087 46.4889 21.4131 7.83609 395447 4638.03 -28324.6 -195243 -96807.4 -178808 
295 1 48.043 44.9087 19.067 7.95457 114288 -510204 -391342 121159 221422 -250825 
298 1 48.1195 46.5038 21.3812 7.9179 650135 -139053 -280530 73089.7 43194 -151598 
273 1 32.073 47.4294 19.2652 27.7745 142459 550936 585161 -38987.6 115941 -3225.54 
274 1 32.0342 49.1444 21.6678 26.5321 122859 835582 834201 -247058 93384.7 55618.6 
276 1 34.9046 47.2913 19.2762 7.5577 -77184.8 236727 -199959 204416 -312879 98451 
277 1 34.8632 49.059 21.6538 7.85771 -14727.9 274962 -105707 54059.6 -15197 142731 
299 1 33.4588 49.904 19.3501 10.0433 -234675 416776 -94116.2 2882.73 81871 20052.3 
280 1 37.8215 47.3727 19.2345 7.71643 110595 189974 -195902 71948 -104370 336187 
281 1 37.78 48.9793 21.6072 7.85845 -195818 -434575 -478572 102665 -147330 193202 
300 1 36.2826 49.8957 19.3312 7.90728 16976.7 139244 -216767 -56221.4 -19288.9 -32422.5 
284 1 40.6645 47.3499 19.1356 8.18325 104674 -239144 -123671 42095 63726.7 -61691.7 
285 1 40.6178 49.0245 21.4584 7.31877 81873.6 -66056 -99652.8 323487 -194697 -47412.8 
301 1 39.28 49.8666 19.1905 7.88016 69308.4 -337985 -581905 167268 -409343 128762 
150 1 42.0684 49.9516 9.83674 7.75464 -584747 -315265 -100297 -353126 -131233 34208.5 
288 1 43.6817 47.3202 19.0846 7.67233 457816 31508.4 -241807 14774.9 3683.14 34138.5 
289 1 43.6524 49.0345 21.4958 7.46835 275819 -236364 -23331.7 126355 210771 -25858.5 
303 1 45.1531 49.8299 19.1457 7.84325 293755 524760 305162 29441 -1566.05 61060.2 
292 1 46.6707 47.3101 19.0732 7.33525 80062.4 -257973 -259883 303635 21172.9 -104584 
293 1 46.5786 48.9544 21.4774 7.88748 318068 79990.2 -386089 85184.2 49203.5 267349 
304 1 48.0149 49.8401 19.1818 8.15381 374406 334793 268091 -174592 172559 -45125.9 
296 1 49.5837 47.4076 19.0511 8.07478 195370 73423.7 -128955 240113 430413 -13303.4 
297 1 49.5317 49.0163 21.5057 8.44326 430666 582653 22948.1 -19508 51415.1 -93201.1 
306 1 46.8227 32.3197 23.7231 53.567 976128 384060 333327 -16997.1 5205.67 32874.9 
308 1 49.7008 32.2817 23.6066 31.4788 981784 366393 372203 -92087.6 -31428.4 -9212.53 
315 1 42.3218 34.8364 23.7458 25.4367 464785 -8125.74 515491 -190709 5295.29 -43473.9 
319 1 45.199 34.6989 23.7736 10.0919 401477 333875 -350602 -27404.7 -66431.3 96758.1 
323 1 48.1788 34.8111 23.7092 7.23712 84223.6 -190185 -306809 -224167 18194.8 2251.17 
310 1 38.0342 37.3615 23.8179 26.3815 -131649 54364.6 441487 -307874 105495 -222847 
312 1 40.7947 37.2675 23.7935 10.6081 -175330 123151 169900 -165788 -129441 19104.2 
316 1 43.7165 37.2551 23.7617 8.12586 106746 -114442 -110176 -231511 163999 174428 
320 1 46.6217 37.2782 23.7897 8.30211 15509 -93945.5 -104406 123988 -104305 63758.5 
324 1 49.5314 37.2782 23.6963 8.3157 -123688 -109203 -207861 -62721.4 37676.1 129706 
329 1 36.4157 39.8654 23.8282 21.5413 429834 554374 316868 -189746 26026.3 24484.2 
333 1 39.2863 39.8152 23.905 7.79788 101585 -180136 -177140 -446895 92023.7 -39598.9 
337 1 42.233 39.7366 23.7941 7.43791 254509 110621 -85372 127527 116152 90785.8 
341 1 45.1944 39.7262 23.8051 7.61583 -225046 -71038 -75232.9 -6844.5 50247.1 -203998 
345 1 48.0238 39.7557 23.7254 8.06733 -109114 -137734 -5844.79 155890 -65099 -111197 
327 1 35.0329 42.3897 23.9838 18.651 79597.3 346283 173562 -135771 -177029 39192.7 
330 1 37.8595 42.3658 23.9395 7.90252 194230 106642 -294846 -170711 147632 161908 
334 1 40.8565 42.2247 23.8564 7.41721 485335 360371 267879 58731.3 -24792.1 26509 
338 1 43.789 42.2979 23.754 7.45282 52043 178512 -263966 -9725.41 97991.5 -153577 
342 1 46.6593 42.2058 23.8717 7.6637 -212267 123812 50150.8 245259 -114124 -131156 
346 1 49.519 42.324 23.8239 8.35031 350292 153460 72775.4 138841 -32432.1 -134154 
351 1 33.4857 44.8963 24.007 21.0201 307431 336513 285750 -113618 -79706.5 -39998.2 
355 1 36.3665 44.9005 23.9676 8.28128 574557 160416 243445 -183881 24388.4 -69161.9 
359 1 39.3708 44.8136 23.8808 7.43689 471191 402495 -107057 -323162 123327 55432.8 
363 1 42.2905 44.806 23.8114 7.87272 75189.6 55297.2 -227257 195853 -6122.86 -181640 
367 1 45.2 44.755 23.8117 7.43073 -99476.6 21192 -211160 -213908 -1017.79 84082.5 
371 1 48.0951 44.8522 23.7744 8.35597 58586.5 -157538 -164000 181303 -50607 -133022 
349 1 32.1073 47.4126 24.0135 28.7625 -349569 332768 264030 76083.5 15122.5 -316631 
352 1 34.8419 47.408 24.052 7.73904 -458797 -44043.5 -167467 -246593 153248 154889 
302 1 42.1881 49.8252 19.0769 8.13725 172975 -36217.4 -351985 127618 40805.9 -69115.1 
356 1 37.7631 47.4122 23.8698 7.6488 567281 -168584 -140180 -183253 48139.4 280138 
376 1 36.3666 49.8586 23.9856 8.04008 -370.519 -332042 85977.6 64228.8 45432.5 53282.8 
377 1 39.2945 49.8234 23.8893 7.95384 416870 183512 120502 -218867 -30224.5 100805 
360 1 40.8282 47.2674 23.8397 7.13509 388326 -9792.09 -171998 -7670.35 139298 -121622 
378 1 42.242 49.7499 23.8011 7.37247 318499 395876 -221124 67407.5 117874 152499 
364 1 43.7647 47.3049 23.799 7.64639 -41519.9 -137876 -316331 12567.6 -161604 -54921.1 
379 1 45.1769 49.7865 23.841 7.8694 100483 -95727.7 -631438 -97232.3 186457 137861 
368 1 46.6481 47.2614 23.7058 7.47456 -32709.8 -159267 -405859 194011 -36429.4 323203 
147 1 33.3244 49.9325 9.81806 8.50851 1.04921e+06 818855 368593 -233701 270750 183625 
375 1 33.4942 49.9591 24.0219 10.1507 -83874.4 -94544.6 -22949.3 -14857 177509 178862 
305 1 43.7453 34.0599 26.0988 22.6577 49322.5 -366120 243757 -222852 24282.9 99572.8 
307 1 46.6518 33.956 25.9951 13.4454 261724 -87281.3 -62770.9 56782.9 -67793 97505.2 
309 1 49.5654 33.8144 25.9849 10.968 694463 452582 255192 -21578.6 35825.5 443375 
314 1 39.4507 36.4915 26.198 25.5836 209122 478771 422399 -270516 -82375.6 -103660 
318 1 42.2999 36.4495 26.1081 10.2254 -129289 -57241.1 159252 -16229.2 87157 -71926.6 
322 1 45.2039 36.3863 26.1442 8.28689 -19809.5 -450055 -13507.7 -252470 -45515.8 172077 