ITEM: TIMESTEP
90000
ITEM: NUMBER OF ATOMS
5538
ITEM: BOX BOUNDS pp pp pp
0.259222 99.7408
0.0641917 99.9358
-8.32652 108.327
ITEM: ATOMS id type x y z c_csym c_2[1] c_2[2] c_2[3] c_2[4] c_2[5] c_2[6] 
41 1 47.7623 39.8682 4.95441 23.9819 50006 101143 330479 365026 -30612.7 29049.9 
67 1 47.7017 44.8922 4.99961 22.9106 -152140 378172 167041 -46575.3 133456 -59775.9 
64 1 46.2962 47.389 4.94138 23.6736 241802 612788 320515 173382 64531 67424.8 
2 1 45.0782 31.8386 7.06331 81.951 -420902 -47596.5 570829 -214973 66858 -132806 
4 1 47.727 31.6396 7.45875 38.0767 105662 453770 145113 13665.2 -149083 -19812.7 
11 1 42.0335 35.0121 5.29732 53.5683 477789 -389021 -416506 -195030 -20707.2 -227907 
1 1 43.4568 34.0497 7.47443 21.3896 391985 627683 236502 -84643 -193817 -93541 
15 1 44.8992 34.8793 5.13242 34.8515 739021 357554 46689.6 -49150.1 -219566 -96078.1 
3 1 46.3633 34.1739 7.37545 6.34527 -516410 -994979 -340398 -519262 -134261 118892 
19 1 47.8487 34.7987 5.05626 37.2503 -18799.6 650876 -254064 12098.4 -83476.8 3671.04 
5 1 49.2455 34.0919 7.34593 7.23219 -554532 -60364.2 -298193 162261 121887 47621.5 
6 1 36.1711 36.7456 7.55338 113.728 739317 600585 164627 -178845 -22886.7 163973 
8 1 40.6242 37.4631 5.14689 37.193 133932 -49861.2 -228852 -144064 -99311.8 -33634.6 
10 1 39.0475 36.6638 7.36357 25.5593 1.1688e+06 480005 751783 -255621 -158912 99463.1 
12 1 43.4541 37.3513 5.11278 22.6444 -58045.7 227949 -190164 -269892 -133678 83888.5 
14 1 41.9674 36.6075 7.45663 10.0411 99802.3 -359232 -930195 -56699.1 -54223.2 -559015 
16 1 46.3199 37.305 5.00772 23.1603 296945 903410 180186 -253158 95631.4 112208 
18 1 44.9232 36.636 7.3779 7.20543 127962 -71435.8 -204432 312500 -94218 15264.5 
20 1 49.1628 37.4327 5.00914 21.9447 207248 80569.7 -219560 165077 59535.9 -14559.1 
22 1 47.8552 36.5152 7.33195 7.93615 -409613 -638967 -10112 -187064 -84091.9 6908.49 
25 1 34.7333 39.1665 7.68367 42.1315 478689 740562 25927.1 -121503 -21561.2 10576 
7 1 37.577 39.1476 7.41324 8.39782 551613 353093 476656 -318325 -33738.2 -84353.7 
29 1 39.1241 39.9063 5.17576 37.4017 150245 673883 86805.7 -234893 5164.65 52676.2 
9 1 40.5782 39.0467 7.44218 8.12284 -48706.6 -568026 -371595 3528.14 -97316.9 -114613 
33 1 41.9362 39.9626 5.14175 21.9526 -63326.3 -222469 -648191 -424913 44963.7 -271460 
13 1 43.4476 39.0587 7.42819 8.10582 -7159.33 -496219 -109377 137755 188737 136667 
37 1 44.8173 39.909 5.08143 22.5575 429663 21784.3 113840 -268466 97634.6 -39749.4 
17 1 46.433 39.0606 7.3917 7.51486 170527 72680 415449 -283158 -98284.1 112379 
21 1 49.2715 39.0604 7.31767 7.58815 -116074 21801 -272620 -108734 109341 25202.9 
47 1 32.0374 44.0442 7.81632 39.3556 -74115.3 779756 -319239 -416183 -160317 -158411 
23 1 33.4859 41.6094 7.89184 33.6859 -616798 212430 -308955 -378382 -96713.9 -104484 
24 1 34.7879 44.0589 7.5579 8.8011 -220420 -162073 347192 119412 -53718.6 -170054 
26 1 37.5587 42.4012 5.24924 37.3301 744771 1.11244e+06 185755 -209204 83554.6 -179525 
28 1 36.199 41.6943 7.63779 7.63991 -839971 -276536 -63009.9 -50038.8 -158273 -47208.2 
27 1 37.7335 43.9978 7.53944 7.2779 -139429 -436893 -180745 -414206 -271577 -242180 
30 1 40.4346 42.4147 5.14659 21.8349 609310 37638.5 222517 -37733.4 -100479 -18475 
32 1 39.0991 41.511 7.58293 8.05878 2549.88 -331049 1671.32 -27799.9 -138407 -9346.36 
31 1 40.6192 44.044 7.5157 7.41442 -463729 -373433 -86307.9 -156498 55854.2 68194.9 
34 1 43.4113 42.3312 5.12082 22.8469 231116 -284958 -351782 -81689.2 165914 80176.4 
36 1 42.0282 41.5189 7.37997 7.79351 -153995 -526604 -626729 -33572.2 175003 -212444 
35 1 43.4515 44.0383 7.41135 7.82477 -182178 -32184.3 272356 139007 73127.6 -133609 
38 1 46.3091 42.2428 5.11875 20.4591 -289136 -182833 -640412 89401.4 -224311 214637 
40 1 44.9004 41.534 7.44006 7.36978 -579536 17745.7 -543069 -150215 -140783 -120265 
39 1 46.3473 44.0942 7.36985 7.29165 -187469 -380620 -304702 63512 -81816.9 228096 
42 1 49.1665 42.4113 5.08666 21.5658 73684.9 331322 -25884.6 28037.8 118830 152005 
44 1 47.7272 41.6087 7.35265 7.24972 -439016 69239.6 -879162 105564 -103488 292193 
45 1 30.5952 46.4844 7.95596 95.7591 435303 743759 -99771.4 -185419 -74773.3 -210477 
50 1 33.3646 46.5706 7.5576 9.12939 25481.9 189806 54556.9 -15163 204110 150928 
51 1 36.2687 45.0087 5.31419 35.5659 367361 227263 -65994.5 -149230 -25345.8 -121108 
54 1 36.2562 46.607 7.59423 8.1278 -6620.58 135606 -514863 151311 -292655 -124679 
55 1 39.1406 44.9442 5.17032 22.1562 113840 -21698.4 -6484.05 923.191 80358.7 -99283.6 
58 1 39.17 46.5025 7.52905 7.51504 -78297.1 -92183.2 23739.1 -32045.7 82978.3 88143.1 
59 1 41.9567 44.8102 5.10201 22.6815 334822 245448 -185138 -45306.8 -11920.2 -122907 
62 1 41.9934 46.4846 7.35879 8.14239 -478503 -541103 -129311 24523 43366.5 122396 
63 1 44.9516 44.7865 5.04528 21.8091 69220.7 569093 -98946.1 83234.9 -164502 41343.9 
66 1 44.8787 46.56 7.31066 7.90962 -460966 -337152 92817.5 266881 -237761 97652 
43 1 49.2421 44.1637 7.43159 7.48874 -159725 -73578.8 -326502 -320524 73922 -19097.3 
70 1 47.7209 46.5749 7.35186 7.68093 -174332 -844575 291626 35915.1 13454.2 -7244.96 
46 1 31.945 48.9833 7.52176 23.5848 562633 1.02113e+06 563404 70536.5 149104 69666 
48 1 34.8134 47.4236 5.39761 32.8555 51306.8 58530.1 -779166 130347 -30662.3 87239 
49 1 34.8464 49.0787 7.63901 7.87382 106259 -403718 -794628 143938 -617026 -5935.93 
71 1 33.469 49.8808 5.39335 43.9354 111825 450027 -186886 233786 -74496.9 194480 
52 1 37.688 47.4379 5.2112 23.0989 9012.14 -36322.9 -144225 -85643.8 20150.8 -223023 
53 1 37.7912 49.0956 7.44361 7.68517 -66586.6 -112612 -84802.4 -173007 -59543.2 -259342 
72 1 36.2797 49.9406 5.17573 24.3533 418384 506823 131514 55809.5 -142991 -98313.6 
56 1 40.4951 47.3436 5.13887 21.8495 93743.3 -45680.3 -292959 -141581 -118926 -1881.09 
57 1 40.6315 49.0037 7.41698 7.87614 -364928 -159190 178310 269823 -61375.2 -202310 
73 1 39.1819 49.8839 5.06464 24.406 366986 323971 5700.01 87405.7 22095.3 -42146.3 
61 1 43.4702 49.0071 7.3896 8.17124 -298895 -118060 -129938 198303 147880 -72735 
60 1 43.4609 47.2991 5.10273 21.9584 331416 756378 -629101 41052.5 -198378 184136 
74 1 42.0409 49.8862 5.07096 24.2459 494433 840613 260049 32073.2 -38149.3 130228 
65 1 46.362 48.9906 7.42726 7.70188 -513131 -559736 101896 178600 -44837.7 -46040.2 
75 1 44.9278 49.898 5.10135 21.8128 331147 121394 -185930 -17500.9 34559.2 -140176 
69 1 49.1937 48.9767 7.33655 7.9867 12993.4 -142841 -8583.16 -33812.8 84584 107404 
76 1 47.8025 49.9108 5.04071 22.2685 364008 701631 163513 219419 -122240 17981.9 
68 1 49.1534 47.3333 5.01204 22.6508 299536 126745 93430.6 -14316.4 127867 -98351.8 
87 1 41.9915 34.8899 9.82168 27.9053 451659 354711 928362 -36885.4 -9327.69 16052.4 
78 1 46.1818 32.5396 9.65739 24.3951 833010 -178000 801015 155074 159528 323815 
91 1 44.8294 34.9204 9.77766 9.17202 298120 -249557 -122050 159224 248636 208078 
80 1 49.1494 32.3841 9.73333 19.1948 1.20028e+06 98577.7 422574 290879 -45902 -53571.6 
95 1 47.8843 34.8462 9.75954 7.43853 391611 -109193 -18885.4 65218.1 127353 -1803.28 
82 1 37.6127 37.4268 9.80655 17.4303 618952 -13368.4 1.06642e+06 -170918 160314 -129946 
84 1 40.5448 37.3162 9.78446 9.67497 386940 199790 127127 99294.2 291530 9195.1 
88 1 43.4166 37.399 9.74495 7.54211 192307 -28462.2 199173 103355 -52159.1 49368.6 
92 1 46.3771 37.4273 9.7389 8.12959 416743 309460 188605 51882.6 -173550 124434 
96 1 49.2784 37.3646 9.63581 7.68466 284070 123685 -173594 -101655 99899.8 -49956.4 
101 1 36.2117 39.8603 9.90833 12.7887 2774.83 68182.6 432105 -105892 -26297 63409.6 
105 1 39.0501 39.8315 9.84545 7.10954 -6723.08 -128943 -136557 -26940.9 -8209.13 241197 
109 1 42.0151 39.8846 9.78989 7.76305 19099.5 -241841 -153719 -36741.7 199733 126328 
113 1 44.9305 39.8743 9.84023 7.8709 -85566.9 -195753 -47890.8 135298 -274518 200244 
117 1 47.8317 39.9313 9.71146 7.84084 27227.4 -277123 -55683.5 -309363 -11430.2 10657.8 
99 1 34.8152 42.3774 10.1078 12.9599 -185616 27085.4 -412898 -175407 -235029 -480669 
102 1 37.6428 42.3087 9.95059 7.23152 -335846 -292898 -502163 110705 -325406 -255517 
106 1 40.5887 42.3693 9.82438 8.15928 -59855.4 178275 -82543.2 72013.6 -36357.5 36773.1 
110 1 43.4105 42.31 9.82737 7.39397 -270508 -68881.1 75754.7 -90587.2 172927 -76664.5 
114 1 46.3161 42.3719 9.66948 7.72366 -52602.9 -436870 -227003 86768.9 -62636.6 -308371 
118 1 49.253 42.3193 9.68929 7.84968 292975 -22205.9 47133.1 -235092 71635.5 -69943.9 
123 1 33.4179 44.9181 9.94779 12.8742 2864.55 414575 15977.2 -115929 -105408 -210992 
127 1 36.2495 44.8245 9.89397 8.37528 -196333 439729 247561 -14375.2 -110323 29109.7 
131 1 39.0961 44.8491 9.85306 7.27947 175335 326119 -216799 16150.9 -169715 55970.1 
135 1 42.0991 44.895 9.81235 7.38637 156601 -249508 -221733 -528.69 -78229.2 -35996.6 
139 1 45.0039 44.8486 9.82633 7.92611 -695391 -98843.8 51819.6 332464 4332.59 7718.34 
143 1 47.7675 44.8913 9.771 7.86748 -555943 -240586 -466141 -191563 223513 -55776.1 
121 1 32.0435 47.4157 10.0332 15.8029 -454582 63554.9 135948 -20884.6 -383000 96462.7 
124 1 34.8326 47.4945 9.93257 7.62441 -237917 -174072 -498792 -107189 139626 -12885.6 
147 1 33.319 49.9198 10.0162 9.27693 536678 -158939 545777 150344 110238 192737 
128 1 37.7272 47.4373 9.94105 7.79737 222979 -82828.2 219730 79030.7 -37667.3 -190693 
148 1 36.354 49.8833 9.85606 8.33921 6915.64 -419726 183621 21812.1 -225258 -24171.5 
132 1 40.6692 47.3571 9.89904 7.69277 70398 32020.9 235059 116629 -206776 -33285 
149 1 39.2049 49.8601 9.8519 7.85262 -71324.2 -45389.1 491451 -241216 2141.23 92898.5 
136 1 43.5209 47.3264 9.77464 7.66065 -347856 -174596 432556 21753 8835 25790 
150 1 42.1026 49.802 9.75064 8.19638 -27818.1 -38154.4 289564 163822 -87834.6 43069.6 
151 1 44.984 49.8573 9.75553 7.92411 -496831 -542838 230497 63344.4 97713.3 -69740.3 
140 1 46.356 47.3831 9.84706 7.91168 -661131 -869727 -352575 -64762.8 51422.3 213434 
144 1 49.2235 47.3175 9.70165 7.9961 -140790 -220.521 28470.7 42210.4 36267.1 101549 
152 1 47.7864 49.7696 9.7818 7.50646 -456510 -167327 -329061 -52830.9 -167088 132520 
77 1 43.6449 34.1732 12.1018 22.8613 -126785 151522 -356153 -388519 348432 68850.9 
163 1 42.2546 34.8588 14.4194 25.7662 204197 162457 243405 -93152.4 143366 -69870.3 
79 1 46.4603 34.1157 12.1271 12.2867 -126410 240386 394375 -191368 364521 140566 
154 1 46.7067 32.5619 14.4734 47.0821 -61252.8 -305005 65547.7 -1501.09 -50908 -204283 
167 1 45.0627 34.834 14.4676 10.361 119146 101067 -195711 188886 73199 -119409 
156 1 49.422 32.493 14.4399 30.4433 -36472.6 -16528.3 134935 -25917.4 -23515.9 180761 
81 1 49.3208 34.0379 12.1434 11.7758 160529 322375 171444 23556.9 -33452.1 91663.9 
171 1 48.0306 34.9975 14.5057 7.19517 -262617 -1.27255e+06 -696880 -318940 236917 -403784 
158 1 37.889 37.3608 14.6375 27.7134 46584.5 -143661 278465 -221047 15097.2 -274584 
86 1 39.2436 36.6263 12.2074 24.8369 211391 407907 807736 -250193 166450 9761.09 
160 1 40.7024 37.3188 14.5894 10.671 -25086.2 -5957.66 -99898.5 23225.4 85355.8 -209791 
90 1 42.0488 36.5849 12.1922 9.95578 27608.5 126071 223185 -114998 74718.4 126095 
164 1 43.6146 37.361 14.5171 7.91247 25695.3 -170538 -518428 -52486.7 185307 -90256.8 
94 1 44.9968 36.6392 12.2043 7.82517 110621 178129 118363 -71299.5 161442 -154310 
168 1 46.5717 37.4585 14.4213 7.53792 -195176 -483045 -274911 72319.7 -80698.4 -280971 
98 1 47.871 36.5841 12.0352 7.53988 -103609 211589 -94501.7 -197458 40976.3 -110376 
172 1 49.4197 37.3755 14.3752 7.76238 -830101 -808553 -338724 -139244 221952 16903.3 
83 1 37.7131 39.0356 12.2359 12.3719 100110 228935 350470 -28588.3 -37643.3 -26119.7 
177 1 36.3003 39.7622 14.6469 22.2809 501069 273125 150571 -194538 -29626.9 81893.1 
85 1 40.6421 39.0986 12.1004 7.54291 -427478 -19879 -3535.05 100526 169995 -1773.68 
181 1 39.255 39.7787 14.5024 7.80631 -13898.4 -461127 -110425 -192248 74568.4 -187955 
89 1 43.4488 39.0909 12.1832 7.42325 -433736 -175834 -233124 109680 29044.8 -7168.77 
185 1 42.1167 39.8468 14.5415 7.73769 -201840 -57412.3 -306566 -18273.3 281777 -27108.3 
93 1 46.4085 39.1934 12.0778 6.85322 -197330 -555524 -709103 -50846.9 -188349 64311.4 
189 1 45.0064 39.8378 14.4521 7.65787 -214020 -264229 -532633 110755 -19984.1 -41860.7 
97 1 49.3811 39.0453 12.015 8.14304 133224 -445646 -25734.6 -161171 -53069.2 40040.8 
193 1 47.9002 39.8853 14.4004 8.05514 52664.3 -304842 -46890.1 -365604 -95210.7 141863 
175 1 34.8963 42.3489 14.6365 19.629 -215159 -301424 -314584 -197551 159198 -142999 
100 1 34.8101 43.9805 12.3467 13.0198 161922 272349 -469412 -200590 -92693.2 -328815 
104 1 36.2344 41.4307 12.3718 13.3195 128308 59079.3 -276757 87165.3 -77965.5 24225.1 
178 1 37.7094 42.224 14.6512 7.4598 -468690 335827 -561562 -24800.4 -281810 45013.5 
103 1 37.6953 43.9668 12.2356 8.22833 336077 74432.6 168686 193923 -31714.1 -204843 
107 1 40.639 44.0931 12.1542 8.01066 -220685 -404271 75916.7 34622.8 -72911.6 -82779.6 
108 1 39.1953 41.5394 12.166 7.27854 170582 -92370.9 -218509 232134 -261276 52582.2 
182 1 40.5935 42.3135 14.5225 7.54586 126454 239323 -231364 -162399 301592 -184851 
112 1 42.121 41.5913 12.228 7.31143 -587893 -534799 -511180 -157252 -1839.77 486.583 
111 1 43.5036 44.0336 12.1274 8.10481 -248981 -472474 -382932 29045.9 40414.6 7038.33 
186 1 43.5362 42.3463 14.4779 7.59998 -83127.9 -243949 -873048 -8923.98 -176813 -457898 
116 1 44.9528 41.5619 12.2062 8.19458 -718731 -696172 -383236 299822 76186 -149073 
190 1 46.4531 42.4237 14.4499 7.73364 -70216.9 -296801 -601510 13980.6 -41532.9 -126616 
115 1 46.4418 44.0075 12.0675 7.39362 -347980 -445134 -695544 -40719.9 -94491.7 318515 
119 1 49.3 44.0271 12.0578 8.27636 -186091 -266553 -611560 -160720 -58929.9 219703 
120 1 47.8383 41.5571 12.1302 8.15886 -236721 -761819 -369729 -322984 -43373.7 -89310.9 
194 1 49.3602 42.411 14.2958 8.35953 145407 -247158 -322771 -82505.6 -86795.4 72302.3 
126 1 33.3849 46.5922 12.2996 12.6183 -91136.4 2313.1 6068.61 -130191 -502045 -74205.7 
199 1 33.4366 44.7912 14.6632 22.4385 -120450 567670 553622 -107621 166282 -67837.8 
130 1 36.3092 46.4986 12.2657 8.10784 251911 377278 165938 91862.7 51506.9 -55773 
203 1 36.2262 44.7782 14.6431 7.57229 -412335 -270466 -362759 -434272 118858 67895.7 
134 1 39.192 46.4721 12.2821 7.7474 -322702 -494266 -413431 134348 -36046.9 208031 
207 1 39.1787 44.9087 14.5576 7.34141 236037 -556731 -777643 289450 97552.3 34750.5 
138 1 42.0597 46.5145 12.2103 7.62796 -412049 -920148 -538550 19920 -133353 45664.5 
211 1 42.114 44.857 14.4922 8.1068 93311.6 -105072 -540984 125324 48978.3 34499 
142 1 44.9873 46.5605 12.1537 7.81806 -273371 -90985.1 -353290 -84067.4 273535 119732 
215 1 44.9991 44.8611 14.4624 8.12121 -36233.5 -84188.6 -31805 35192 60270.8 180241 
146 1 47.8191 46.5358 12.0793 7.72598 -350400 -524343 -530125 114515 -59337.8 91247.8 
219 1 47.9066 44.86 14.3855 8.02323 -269875 -499584 -437624 83312.9 79673 20365.5 
122 1 32.0305 48.9902 12.4723 25.0786 -17200.5 278957 310213 161746 -217998 -136510 
197 1 32.0142 47.373 14.7962 28.1213 -24454.8 352359 -36855.8 19831.3 -276612 2437.02 
125 1 34.8522 49.0127 12.2547 7.87978 111158 177691 -329098 38647.9 -67585.2 -265617 
200 1 34.8083 47.3025 14.5967 7.0607 -378673 -197965 -614181 -163980 3288.85 -40100.6 
223 1 33.5077 49.8664 14.6475 10.2646 -301270 106619 -614473 71296 -201154 80620.8 
129 1 37.7949 49.0415 12.262 7.5723 -10651.2 284221 -203327 46891.5 88265.9 -338461 
204 1 37.7392 47.2492 14.6321 7.34019 -321503 -574913 -581922 558063 -17763.1 4204.5 
224 1 36.3685 49.7086 14.603 7.11856 -343764 235867 -432851 44875.4 163806 -30742.3 
133 1 40.632 48.951 12.2796 7.42232 -381299 -302685 -261992 213256 141019 -36260.9 
208 1 40.6775 47.3539 14.5503 7.7436 -222141 -549290 -998312 84771 85212.7 232981 
225 1 39.2753 49.8303 14.5756 8.3881 -357350 120255 -424415 229887 200443 73120.2 
226 1 42.1036 49.9182 14.6056 7.14283 -323344 -429383 -355979 -162677 -24515.5 121797 
137 1 43.4626 48.9934 12.1641 7.32489 44383.9 -336489 191819 8975.94 -94446.3 178513 
212 1 43.5643 47.3868 14.4865 7.89052 11155.3 -194776 -406967 -155400 8978.37 64203.4 
141 1 46.4472 49.0042 12.1732 7.62053 -543742 -867703 -405401 203634 114125 -183549 
216 1 46.507 47.3346 14.5358 7.60468 7398.24 -174843 -463763 145503 -70223.4 62019.8 
227 1 44.9973 49.8225 14.5317 7.74311 -222081 -358332 -524357 -169182 171163 375744 
145 1 49.2383 49.0325 12.0807 7.60021 -727436 -298449 -317337 11238.1 -285916 37811.9 
220 1 49.4153 47.3411 14.4116 7.77324 -46667 -240057 -207903 78413.8 -91088 210524 
228 1 47.8974 49.8883 14.4693 7.53245 -132060 4456.94 -228844 -131268 37245 -68752.3 
153 1 43.6687 34.0186 16.8084 27.9299 564066 193867 537224 8500.75 -39904.2 -10050.5 
155 1 46.6316 34.0376 16.7927 12.8273 407754 -233662 -203231 -326555 53849.4 -48462.4 
157 1 49.5367 34.0813 16.8105 12.8426 -175821 -422830 -43730.4 -164819 -185539 74573.2 
162 1 39.3673 36.5449 16.9513 24.9211 -42666.7 -38508.3 115198 -228319 19597.1 801.089 
166 1 42.2199 36.3903 16.8226 10.134 1269.62 -19648.2 67342.8 10922.4 -40353.7 83446.9 
170 1 45.1228 36.523 16.7889 8.18426 -4353.65 -10534.3 -8870.41 105806 17778.7 -94118.3 
174 1 48.0143 36.476 16.7722 7.27123 -255336 -494366 -537772 -123223 61456.2 -379150 
159 1 37.8873 38.9384 16.8976 13.2642 -55475.8 -128636 -163599 -193287 -61974.9 -321961 
161 1 40.7901 38.9538 16.9038 7.66762 -361006 -402749 -213886 -389143 250971 -175906 
165 1 43.6112 38.9525 16.8793 7.73937 -393804 -294884 -214960 219680 -1522.8 -4250.86 
169 1 46.4808 39.0295 16.7873 7.52806 -32775.8 19524.4 -185190 74371.2 34899.9 -235997 
173 1 49.3967 39.035 16.8009 7.94824 227209 293949 82432.9 129292 136541 -78627.5 
176 1 35.013 43.9254 16.9589 12.3274 -47431.8 332361 -645444 -330020 234067 -62171.9 
180 1 36.3754 41.4259 16.9627 13.2463 -130813 133991 -328591 -63890.9 333995 47906.1 
179 1 37.8867 43.9353 16.9231 7.97326 -106760 107233 -329414 26815.4 258942 -52188.7 
184 1 39.2459 41.4394 16.8158 8.06851 -186598 -157798 -492009 142936 -10598.4 93714.3 
183 1 40.7434 43.9846 16.8473 7.92773 25932.1 112756 38250.3 -47547.9 156796 -47478.8 
188 1 42.1536 41.4094 16.9327 7.87052 4568.97 -382358 -351285 -93791.3 15064.6 -129175 
187 1 43.6558 43.9338 16.7754 7.37919 154975 -80301.5 -410324 127111 36792.4 10694.7 
192 1 45.0487 41.4806 16.7921 7.84405 11201.7 -346528 -265141 351239 130877 -5794.82 
191 1 46.5504 44.023 16.7853 7.66738 -292327 -124201 -356517 112152 104019 -123374 
196 1 47.9663 41.5927 16.7614 8.12695 -30759.2 -151329 2140.47 144055 -27834.4 -24731.3 
195 1 49.3781 44.067 16.7389 7.96028 -152061 -266427 4170.3 119753 -120288 54244.3 
202 1 33.5146 46.6357 16.9938 11.0398 -751804 138270 -646694 -313581 177570 98333.3 
206 1 36.3271 46.5576 16.9373 7.48824 -264970 159589 -396525 82247.6 183236 79341.6 
210 1 39.2879 46.478 16.8296 8.15972 -9309.89 -236578 -731276 14208.6 4078.6 -66643.8 
214 1 42.1661 46.4675 16.8277 7.38574 -192098 -115917 -370775 3591.36 13669.6 -62968.1 
218 1 45.0268 46.5669 16.8414 7.93165 -173050 -145687 -381354 114666 217344 204308 
222 1 47.9858 46.532 16.7635 7.99195 14563.4 -270869 -385400 131532 -228007 122544 
198 1 32.0932 49.0634 16.9733 25.7726 46712.3 58805.6 11389 -84774.9 -36238.7 -226455 
201 1 34.9721 49.0048 16.916 7.75572 -356667 -887833 -357557 24374 147478 43125.3 
205 1 37.8844 49.0372 16.8946 7.83406 -293702 -52697 -465968 177224 26072.3 3927.18 
209 1 40.7498 48.9644 16.9342 7.7167 -236787 -101268 -401880 -2893.28 209618 -2823.12 
213 1 43.6336 49.0205 16.8729 7.5396 -389639 -328185 -717165 216685 -2709.87 142476 
217 1 46.4925 49.011 16.8377 8.07806 -41150.3 -237738 -400945 -189388 -194490 -34520.6 
221 1 49.4567 49.0714 16.7967 7.82823 -135480 -315782 -123793 -80189 -158904 13548.3 
239 1 42.2686 34.8071 19.2093 26.5455 271607 20011.7 440982 -19654 -24115.1 -118577 
229 1 43.7886 34.0906 21.5651 23.941 -306008 -348722 -76976.8 -33212.6 222532 -159131 
230 1 46.7886 32.4676 19.1103 39.0934 589056 -175515 211167 -201924 9801.21 -59721.6 
243 1 45.0736 34.7762 19.1343 9.39298 78416.3 113685 -61923.9 47955.6 -92535 65004.2 
231 1 46.6149 34.033 21.4049 12.105 -294275 6090.92 -291941 -33033.7 209325 2090.18 
232 1 49.6045 32.4017 19.0502 32.435 938679 158366 280391 -207983 -34601.5 109943 
247 1 48.0249 34.9104 19.1793 7.31324 7931.44 -795679 -704882 -214092 12428.4 189584 
233 1 49.4845 33.999 21.4095 11.3502 505981 103608 225375 238153 56224.8 73225.1 
234 1 37.9895 37.3099 19.3117 27.9323 -91178.7 -370719 -18733.6 -246482 15664.8 -288030 
236 1 40.8089 37.2372 19.261 10.1681 -207048 -79895.6 -532150 109785 -124940 115746 
238 1 39.4967 36.476 21.5639 25.8151 -145248 112505 -139971 -192448 -46314.6 47398.2 
240 1 43.7387 37.2841 19.1471 8.1572 86874.6 209939 -231951 133585 120874 178575 
242 1 42.3286 36.4218 21.4909 10.18 -505923 -263703 -520241 199852 -133257 -87420.4 
244 1 46.6067 37.3143 19.1918 8.29331 51972.3 190621 176073 245744 180147 -24991 
246 1 45.2157 36.4991 21.5044 8.12489 -27831.2 -343811 -255807 -17478.6 242128 102760 
248 1 49.5224 37.3835 19.1429 7.36525 -127951 -30129 -93597.9 -71492.9 38818.9 151647 
250 1 48.1763 36.4942 21.5301 7.41643 -403866 -412975 -692090 -24002.4 101075 -47656.5 
253 1 36.4906 39.7688 19.2682 20.759 220237 426475 292868 16213.4 48960.3 34296.5 
235 1 38.0222 38.8784 21.5728 11.8121 -65165.4 -204476 -528569 -145427 47440 -179226 
257 1 39.3326 39.7027 19.2159 7.62573 -334076 -232575 -497138 -260069 114016 -195741 
237 1 40.9024 38.9841 21.5429 7.76035 -278779 -140829 -692787 30678.5 170566 164841 
261 1 42.2377 39.8501 19.254 7.70501 76215.4 59885 -693778 8719.66 74924.1 355450 
241 1 43.7637 39.0041 21.5113 8.05794 -129467 -19871.1 -474489 79676.2 179425 204694 
265 1 45.1622 39.88 19.1525 7.56498 -30768.1 88698.2 -181495 10734 166645 -22357 
245 1 46.6738 39.0202 21.5213 7.80216 -360016 285110 48747.3 -125192 -16754.5 -38074.4 
269 1 48.006 39.8922 19.0801 8.14085 -196314 202660 -51910 105922 169216 3334.24 
249 1 49.436 39.0744 21.4959 7.56888 -363356 195011 88222 81965.1 140884 54397 
251 1 35.1528 42.3178 19.3257 19.1462 -214269 9969.14 -14927.7 -135822 115864 -67516.4 
254 1 37.9456 42.3062 19.2436 7.57987 -638679 208256 -281671 220699 -155089 157628 
256 1 36.5757 41.3816 21.6442 11.9053 22020.8 164016 102445 -97123 -117418 237423 
255 1 38.016 43.936 21.6199 7.76293 -462059 -57500.6 -321488 40485.7 36028.8 50896.6 
258 1 40.7532 42.2997 19.2245 7.82678 -275323 222813 -245632 170933 443633 101164 
260 1 39.4143 41.4164 21.479 7.86218 -138539 -184579 -520053 152043 91699 305516 
259 1 40.8402 44.0078 21.5747 7.85355 -675349 -39409.5 -72074.6 224566 47411.1 -17024.8 
262 1 43.6855 42.3453 19.1292 7.75446 50056.9 26010.9 -180573 101056 -28006.3 93357 
264 1 42.3278 41.5704 21.5807 7.65708 -569830 -152400 -431639 27037.9 -9024.81 33674.3 
263 1 43.6587 44.1069 21.5472 7.56683 -413563 -222026 58465.8 169859 -94917.3 257527 
266 1 46.5784 42.3828 19.1205 8.23389 -200020 -17488.4 164977 28918.1 104475 67927 
268 1 45.1047 41.5243 21.52 7.38615 -177707 228806 -145682 34174.7 222563 -78578.5 
267 1 46.5449 44.1038 21.5152 7.58111 85418.5 -115044 349261 211307 173193 148015 
270 1 49.4132 42.4433 19.1241 8.0314 -200074 -243987 -13329.5 -204613 161313 -16957.1 
272 1 48.0467 41.5868 21.5245 7.94058 284756 32556.3 -54360.3 -24629.2 24466.6 84711 
271 1 49.4529 44.1147 21.5305 7.72165 29774.4 -427291 -227715 143854 -84808.7 66793.6 
275 1 33.6918 44.823 19.2888 19.5118 54845 345750 324434 -209236 185795 -312860 
278 1 33.7114 46.433 21.6129 12.2309 -377061 192628 -661921 -218002 346183 118402 
279 1 36.4923 44.7759 19.2167 8.28394 -263445 -381123 -218672 -209232 54708 -212769 
282 1 36.5254 46.4259 21.5497 7.72759 -365979 -11860.7 -581002 69331.9 211866 121689 
283 1 39.4251 44.8694 19.235 7.37221 -54674.2 -130712 -40932.1 97467.9 -32197.8 -36417.1 
286 1 39.406 46.4881 21.6063 7.71517 -343389 -389475 -377528 2526.43 243273 -161858 
287 1 42.2745 44.8576 19.2023 7.52878 -301143 -195698 -172837 291179 -127064 54809.9 
290 1 42.2681 46.5311 21.5085 7.85883 -289094 -601206 -444280 462944 -63376.8 89025.5 
291 1 45.1353 44.9134 19.1037 7.67582 -177053 319.753 -82871.6 64376.8 19077.4 146505 
294 1 45.2104 46.5515 21.506 7.79112 -298340 -466409 -142796 122299 -183.589 9957.57 
295 1 47.981 44.9203 19.1409 7.78325 -643855 -615999 -249895 58427.2 36794.7 -117468 
298 1 48.0505 46.5196 21.4619 7.66517 -418763 -439136 -324223 150839 7929.59 -101649 
273 1 32.2488 47.3791 19.2974 26.0333 -561180 136746 19529.3 -70046.6 284094 -202716 
299 1 33.5483 49.8533 19.2645 10.0256 159894 -99884.3 -239008 51508.9 -143066 334087 
276 1 34.983 47.3393 19.3529 7.88097 -790997 -136820 -1.09959e+06 -123494 42925.9 -155304 
277 1 35.1216 49.0252 21.5202 8.40114 44867.6 126549 -470148 -170436 103141 -209836 
280 1 37.8865 47.2976 19.2297 7.99034 329545 245502 25168.2 -105491 93575.2 54286.1 
281 1 37.987 49.0071 21.598 8.10009 -333410 131716 -69699 17671.7 277738 49043 
300 1 36.5102 49.9257 19.2363 7.47124 135051 -166671 -644266 -99991.5 249836 261031 
301 1 39.3724 49.8192 19.2458 8.22092 -92653 430833 -341578 99816.1 171784 83589.5 
284 1 40.8706 47.3055 19.2365 7.30735 -494569 -432411 -491687 156346 -87776.5 190447 
285 1 40.8153 48.9433 21.5931 7.41542 -188987 -603743 -46526.8 230014 37715.2 6706.84 
302 1 42.2515 49.881 19.2568 7.91457 -782976 -307259 -542189 61105.3 30842.1 -85331.8 
288 1 43.6463 47.4021 19.1689 7.80815 -508133 -514034 -353421 -58166.7 263152 140717 
289 1 43.7723 49.0421 21.5821 7.38095 -175280 -40346 -586423 122036 22699.6 82508.1 
303 1 44.9961 49.8941 19.1979 7.22094 -722709 -197383 -382921 -108462 -23952 23883.5 
292 1 46.596 47.3877 19.1787 8.04135 -235159 -768375 -519517 -230954 26670.1 80909.6 
293 1 46.6163 49.0789 21.4517 7.5541 -634174 -277747 -821295 -278633 339670 54581.2 
304 1 47.9132 49.8236 19.1507 7.39861 26724.3 -202805 -829124 -411575 83142.6 296211 
296 1 49.4517 47.3478 19.0931 7.99157 -328874 -200343 -155282 28487.7 -121422 133924 
297 1 49.4636 49.0778 21.4275 7.79004 -204583 18270.2 -28183.5 142828 -60050.3 135076 
315 1 42.4299 34.8019 23.8568 27.8112 47258.7 358743 7517.64 -30154 48698 9835.16 
306 1 46.5809 32.4892 23.8166 46.6054 298625 -457297 343393 157868 -3848.9 -120293 
319 1 45.2324 34.8358 23.8522 10.4401 -716001 -578915 -541507 214631 -35347.2 110942 
308 1 49.3661 32.4006 23.7897 33.5019 642874 118132 248158 203858 -16753 -152643 
323 1 48.0676 34.8624 23.8008 7.5157 -307973 -854163 -566300 236155 101381 354364 
310 1 38.0961 37.3323 23.9526 28.0927 -79463.5 -13465.2 75047.2 1791.52 -176925 108204 
312 1 40.8947 37.3169 23.8113 10.0904 -183013 54086.8 -633306 -164467 -32332.7 -93095.6 
316 1 43.7674 37.3518 23.7781 8.12206 292397 191029 6159.36 175591 96492.6 105463 
320 1 46.756 37.3371 23.8372 8.15604 48008.1 23861.3 -250554 198920 12289.2 85811.2 
324 1 49.6083 37.4181 23.8173 7.47413 -288114 195253 -541074 69361.4 -110781 -32394.6 
329 1 36.6774 39.8406 23.944 19.1438 -431529 -91849.1 -240576 -19238.6 -35362.4 143942 
333 1 39.4325 39.8247 23.8562 7.65738 -371466 -118939 -90774.6 -182805 50807.1 15930.4 
337 1 42.41 39.8559 23.8059 8.14938 -70725 -253876 -656034 294305 61358.2 -46389.7 
341 1 45.2631 39.9353 23.8874 7.78018 -317164 246862 -106392 -1323.54 178699 106793 
345 1 48.0734 39.9583 23.8533 7.01851 -129044 -92375.5 -573790 -71351.6 116919 13924.9 
252 1 35.1947 43.9118 21.7002 11.867 -373285 78850.5 -209887 -302411 124280 -435432 
327 1 35.1842 42.2644 24.0834 19.9372 98094.1 181141 39261.5 97321.7 -195685 -64414.3 
330 1 38.028 42.359 23.9229 7.01711 -220268 -626105 -530457 -250623 50500.5 73376.3 
334 1 40.8935 42.2852 23.9197 7.76731 -52386.3 35571.2 -171438 182885 22414.9 42918.5 
338 1 43.8403 42.4192 23.8343 7.39988 -168194 -104260 -539039 -290.704 191961 -46614.1 
342 1 46.6856 42.458 23.8782 7.56174 -354976 -160108 -100897 140494 140181 -80236 
346 1 49.5347 42.4382 23.8148 8.15504 -42888.5 -101175 -41327.8 -108371 -3964.81 89328.1 
351 1 33.7638 44.767 23.8937 19.7483 -266166 90419.8 -26468.6 226008 271157 -31996.4 
355 1 36.558 44.8373 23.9205 7.48058 -542493 -249146 -451295 103306 -192306 -199625 
359 1 39.4424 44.8038 23.9286 7.70577 -478629 -389574 -324647 -168123 124235 81372.6 
363 1 42.2894 44.9074 23.9332 7.45733 -107253 -256556 -48288.6 155734 217029 -144211 
367 1 45.2175 44.939 23.9277 7.61137 127838 -626157 -138009 -48521.8 145496 -138814 
371 1 48.1598 44.9807 23.9484 7.30404 -147509 -328540 -255743 69039.6 392315 -131227 
274 1 32.2639 48.8973 21.7002 25.6506 464740 730751 693320 28661.4 6609.27 65414.2 
349 1 32.4491 47.2308 24.0065 26.0742 -464997 87886.2 -2095.64 258537 -85054.7 70704.9 
375 1 33.8469 49.7714 24.028 9.36309 -712202 -192046 -385889 254290 50856.7 34062.8 
352 1 35.2086 47.3177 23.891 7.87839 -707493 -353456 -341275 404341 114526 -79396.4 
356 1 38.0998 47.32 23.922 7.60456 -413786 -1759.15 -250098 96747 394065 -66666.7 
376 1 36.6209 49.8809 23.9066 7.53867 -556862 -232399 -109569 -69572.7 166381 -10004.7 
377 1 39.5055 49.8499 24.005 7.68091 -307684 -220906 -360649 5554.12 56881.6 297610 
360 1 40.9099 47.3064 23.9491 7.86724 -688924 -462711 -124286 232961 36253.5 106706 
378 1 42.3483 49.8128 23.9505 8.05503 -372830 -107631 68972.3 198315 103040 73092.5 
364 1 43.7722 47.3686 23.9135 8.02691 -376301 -488537 36660.2 168630 154198 127782 
368 1 46.6276 47.4003 23.8046 7.46906 -218953 -560100 -60854.7 -175475 37461.5 57543.6 
379 1 45.2293 49.8792 23.8273 8.0671 -421068 -193626 24095.7 44987.6 -17526.3 -182023 
380 1 48.061 49.8375 23.858 7.35068 -336446 -562388 68125.7 -106648 103514 126336 
372 1 49.5769 47.4645 23.7729 7.72661 -558266 -635089 239749 -33729.1 -39568.7 130474 
305 1 43.8541 34.0677 26.1272 21.8878 195773 185287 -49481.3 -62936.3 16447.5 233720 
307 1 46.7664 34.0291 26.1384 12.6596 -172676 90762.3 -481212 -186013 -8042.94 -21540.5 
309 1 49.5696 33.9854 26.0637 11.5895 228052 498463 165302 17739.7 11401 -173316 
314 1 39.5409 36.571 26.1878 25.5332 -238971 -193569 59923.8 -205637 -134087 119971 