ITEM: TIMESTEP
50000
ITEM: NUMBER OF ATOMS
5538
ITEM: BOX BOUNDS pp pp pp
0.259222 99.7408
0.0641917 99.9358
-8.09529 108.095
ITEM: ATOMS id type x y z c_csym c_2[1] c_2[2] c_2[3] c_2[4] c_2[5] c_2[6] 
15 1 45.1926 34.7575 4.77423 32.1181 386840 358867 72413.2 68173.7 -167203 -16325 
2 1 46.6178 32.3696 4.86147 87.3327 352871 308587 41572.7 90606.3 -18504 17839.8 
19 1 48.0337 34.8268 4.77918 30.825 637586 282114 211566 32362.3 54080.8 -116824 
8 1 40.9955 37.3629 4.86122 39.603 145094 368426 403790 -300621 -288020 146684 
12 1 43.7804 37.2877 4.81283 23.6052 3302.87 562707 132795 47324.7 -30741.8 1977.24 
16 1 46.6287 37.3019 4.77313 22.8815 227534 -167986 17554.6 -184332 -61866.1 -161150 
20 1 49.5565 37.2059 4.83461 22.4144 392197 112571 -137496 -227858 -75923.9 -10969.3 
29 1 39.4583 39.807 5.00207 34.0912 187405 422270 -159460 -69950.8 -13756.9 -84252.9 
33 1 42.2904 39.7955 4.91713 21.7073 17627.8 -11322.8 -171363 -162864 -136711 55911.1 
37 1 45.1763 39.8237 4.75436 22.4097 -4769.49 -143422 60429.2 -262933 -77021.4 -34634.6 
41 1 48.0106 39.6578 4.72037 22.4081 60762.1 -191154 85234.5 -298754 12619.6 22755.2 
26 1 38.0359 42.2542 4.86755 39.4406 390873 647012 535278 102551 -130996 -27898 
30 1 40.8674 42.2944 4.81012 23.9138 3676.92 231632 85268 14317.4 -49948.3 -73248.8 
34 1 43.6816 42.3249 4.79596 21.689 182355 233631 125947 -92109.7 -30447.9 -26965.3 
38 1 46.5911 42.1509 4.68333 23.1181 279296 -53532.5 181295 -247885 -127064 32230.9 
42 1 49.4767 42.1413 4.61788 24.4667 526591 459209 181333 154731 58452.9 40378.5 
51 1 36.6109 44.6992 4.89106 36.9897 417483 635337 195433 -54973.9 -27161.4 -27845.4 
55 1 39.4585 44.8059 4.76736 22.7465 119666 546156 81039 81647.8 -96956.1 -28406.7 
59 1 42.254 44.8059 4.68968 23.9051 409112 470781 385330 -156519 60023.4 -85426 
63 1 45.2067 44.7004 4.66243 23.7726 759788 547426 -71528.8 -31256.9 -256902 4938.48 
67 1 48.1281 44.6265 4.59786 23.2021 485654 847490 145144 112148 -154586 132602 
48 1 35.0988 47.1737 4.93106 37.7899 84694.8 546097 -162984 -198804 -166536 -12701.9 
71 1 33.5301 49.605 5.00876 42.9502 552067 633873 -169982 -36483.2 -189924 -158496 
52 1 37.8884 47.2952 4.79576 23.1648 -3791.17 369958 -32532.5 4118.98 -84521.4 -7415.39 
72 1 36.3833 49.7157 4.86992 21.3312 235625 -88406.9 -309156 143304 64769.8 13368.4 
56 1 40.7486 47.3657 4.64488 22.5107 614527 328341 189443 -184550 106577 -29966.8 
73 1 39.2788 49.7937 4.69293 23.7072 735518 50168.9 485819 39935.3 2664.57 -19776.9 
60 1 43.7276 47.2511 4.60115 24.7329 862986 430008 145301 -104547 -93620.6 -235.058 
74 1 42.3073 49.7363 4.64529 22.8209 758590 311180 182757 -94109.1 172.232 30289.2 
64 1 46.6653 47.2588 4.61097 24.0911 897952 917596 229374 68547.7 74528.9 -9518.11 
75 1 45.2121 49.699 4.65489 22.4612 538329 363057 -262221 87413.1 489.862 -103088 
68 1 49.5756 47.2018 4.68192 21.7934 438517 631635 -342054 86636.9 -80441 65213.2 
76 1 48.1583 49.7987 4.61566 22.8497 554156 544865 170398 -53930.6 -118583 69527.3 
4 1 48.0367 31.6537 7.10174 48.9474 -238714 -526179 -29750.1 75435 -216951 -80744.8 
11 1 42.383 34.8092 4.97566 52.0711 444046 431458 -115471 -68673.2 -34776.4 -16056 
1 1 43.7423 33.9548 7.19751 26.3944 255777 214545 584925 -351951 -282063 48267.3 
3 1 46.5827 33.9607 7.11125 10.6136 -348193 -923314 -23641.7 364798 -25586.6 -38022.2 
5 1 49.5064 34.0007 7.16307 6.88055 -130913 -1.1673e+06 -89448.1 104601 159828 33803 
6 1 36.7193 36.7352 7.0856 108.731 -135240 -144924 306214 -270099 31586.9 121509 
10 1 39.4137 36.5293 7.30201 26.5742 243807 705843 602421 -233449 -386351 -145503 
14 1 42.266 36.4811 7.1709 10.3237 -53827.5 -25795.7 -220666 -155196 -288289 -38966.8 
18 1 45.1412 36.3576 7.14664 7.33076 -91195.2 -361802 239441 32226.8 -194687 -33838.5 
22 1 48.0097 36.424 7.13336 7.8016 -16395.9 -252467 115522 16055.5 9490.91 17124.9 
25 1 35.1837 39.0327 7.53725 36.551 -140602 468394 6064.27 -311796 41749.6 -24525.8 
7 1 37.9136 39.1376 7.2754 8.31891 -470877 -735109 75721.1 -430336 17029.5 76939.5 
9 1 40.8792 38.9963 7.29846 7.75889 -117298 -19286.2 -67247.3 40335.6 -87791.3 14709.4 
13 1 43.7158 38.9462 7.16882 7.70641 -410259 99135.1 112444 -166455 -219542 143912 
17 1 46.5374 38.9062 7.07833 7.38073 -103756 155191 65122.8 196657 44342.3 -103024 
21 1 49.4423 38.9314 7.10242 7.37577 111269 -63927.7 19434.2 62730.8 105467 18468 
23 1 33.7168 41.4022 7.54339 38.7649 -135362 -8983.18 -520150 -127836 -313031 -282758 
24 1 35.1074 43.875 7.1743 8.40079 333648 -149799 669471 228248 -176812 83425.8 
28 1 36.5325 41.5185 7.32154 8.23773 -182315 -635131 329428 463249 -185997 -56605.5 
32 1 39.4459 41.5028 7.23536 8.31811 -466840 -791130 27966.9 -114538 -99512.8 -93665.5 
31 1 40.8433 43.9778 7.1104 7.62749 -644169 -266636 73390 21232.5 -109317 -37399.1 
36 1 42.2633 41.5172 7.20716 7.5785 -386495 -90447.5 152997 21888.4 42258.9 -45301.6 
35 1 43.7406 43.9815 7.12411 8.066 -128456 43902.1 375979 -101735 94030.2 -201803 
40 1 45.1248 41.4271 7.1197 7.12003 151299 -15161 102275 28490.1 -24049.4 -48585 
39 1 46.57 43.9592 6.96483 7.45032 -123195 125398 164420 106814 -231971 113113 
44 1 48.0656 41.4345 7.00139 7.76514 216231 257803 240311 89524 39992.1 -16393.7 
43 1 49.5026 43.9193 6.93645 7.81361 -186894 -163147 76229.3 113621 7031.13 97849.9 
47 1 32.308 43.7216 7.42191 42.3063 264709 355961 148939 41153.8 112140 -25364.3 
45 1 30.9602 46.15 7.54323 91.0372 -68517.2 594274 35180.2 -69723.9 197846 -206147 
50 1 33.6507 46.3039 7.24341 9.17948 -267394 350622 346790 85299.7 -78237.3 50408.3 
27 1 38.0853 43.9585 7.21577 7.42123 -467145 -180316 76055.5 70978.3 -285590 6905.66 
54 1 36.523 46.3962 7.18759 7.84152 -162399 -256613 -211136 69156.9 -361657 46355 
58 1 39.4422 46.5349 7.04916 7.66081 -253073 -222278 113797 29128.7 -76393.6 -67023 
62 1 42.2787 46.4999 7.01415 8.26643 -89176.5 -99506.1 539892 -2631.99 128828 -58577.7 
66 1 45.1801 46.4512 6.92052 8.04606 94703.4 -292167 379745 141832 31172.8 -48954.9 
70 1 48.1064 46.3802 6.98516 7.88208 -10917.1 -303929 -159411 49603.8 171373 220946 
46 1 32.2053 48.7601 7.33203 22.7686 458129 933820 -56661.5 15877.6 -19971.9 100370 
49 1 35.1105 48.8432 7.20275 7.33606 -409206 -399665 -359373 136407 -119658 -79125 
53 1 37.9363 48.9125 7.15165 7.95713 -182746 -367648 49443.6 321509 -78115.1 -40766.4 
57 1 40.8831 48.973 7.02795 7.60536 108811 -513960 229979 -21753.8 18473.7 32531.5 
61 1 43.7811 48.9004 6.96606 7.92351 43306.8 -133781 233553 -131423 -6795.87 117697 
65 1 46.6806 48.9081 6.97491 7.94274 -74034.1 113714 136097 89327.7 -66152.3 161385 
69 1 49.5158 48.9138 6.94659 7.58973 -288775 21474 -258002 -119237 -144995 42580.9 
87 1 42.297 34.8982 9.52371 23.4248 381652 -162685 767045 -186123 9015.18 103442 
78 1 46.5913 32.3516 9.44207 35.6985 331330 102928 521611 -14905.3 -31154.3 112096 
91 1 45.1406 34.765 9.58079 10.7675 153003 -217308 283496 -115150 -82586.7 -76520.1 
80 1 49.3997 32.2952 9.41834 19.1575 -104723 -136329 -285240 -32113.9 116672 82955 
95 1 48.0247 34.7979 9.53023 7.80091 53041.4 -79368.8 284514 47331.3 127637 -33792.5 
82 1 37.9096 37.4851 9.5632 16.0389 508590 -17206 759987 -100046 352112 8793.6 
84 1 40.7727 37.2734 9.63393 9.8602 267591 128648 6834.17 102937 -109335 96413.9 
88 1 43.6818 37.3059 9.53969 8.07564 -27515.3 85406.9 415830 -209737 -61235.4 27946 
92 1 46.5073 37.2395 9.50597 7.40354 97744.1 -136496 64512.9 -69235 -27432 -234032 
96 1 49.5371 37.288 9.47812 7.98134 451315 99084.6 125966 12940.3 71545.7 -44847.8 
101 1 36.5387 39.9852 9.74672 11.9983 179811 -530537 -258548 -69276.2 -42075.3 -267173 
105 1 39.4523 39.8622 9.61736 7.62804 61893.3 112974 -114686 7069.31 52110 -51982.4 
109 1 42.3224 39.8717 9.61131 7.5851 66061.6 291800 24097.5 110016 -229476 -86904.6 
113 1 45.2037 39.8098 9.51373 7.70555 -134794 -12000.3 145931 169406 -70956.2 -21456.4 
117 1 48.0414 39.7634 9.47507 7.95597 124126 130085 -16290 159823 255811 -373919 
99 1 35.026 42.3454 9.64214 13.0382 177714 22724.2 -179499 -167023 -255721 -203708 
102 1 38.0014 42.3872 9.62722 7.70803 110978 -481871 -138239 -75783.9 -12559.8 123387 
106 1 40.9117 42.4164 9.58968 7.06163 163524 -202629 -13996.3 86385.9 -47003.1 -67844 
110 1 43.8301 42.3225 9.53539 7.29173 117069 10155.4 57709.2 55104.7 -138690 -142217 
114 1 46.7062 42.2951 9.39544 7.51366 17699.6 -42379 -26568.3 62410.2 -114360 -174644 
118 1 49.6128 42.2668 9.36693 7.67828 -411009 205943 282288 97920.2 107391 -170471 
123 1 33.5435 44.8355 9.67503 12.3689 620128 -233780 625879 -311412 125029 71933.4 
127 1 36.5181 44.7877 9.58016 8.01449 279460 -450268 379971 269937 -136915 113765 
131 1 39.4399 44.8569 9.51181 7.71426 -118266 -335701 48585 153637 -198033 -241499 
135 1 42.3077 44.8628 9.44042 7.79861 104712 -113392 -45545.5 -167588 -43593.5 -292912 
139 1 45.2515 44.8293 9.43597 7.85996 125252 78188.6 343130 -38944.4 -112026 -176779 
143 1 48.1146 44.8049 9.30049 7.76868 9583.18 -61075.2 78210.5 3221.87 116419 191435 
121 1 32.2001 47.2794 9.70423 17.4289 -39492.8 -293652 -229831 133396 -213565 -14797.1 
124 1 35.0412 47.1723 9.63528 7.45209 -266933 -229989 -68610 10262.7 -323103 121681 
147 1 33.642 49.7709 9.57957 9.72604 -159435 -208212 -57816.4 -219135 -69801.2 -3114.61 
128 1 37.9643 47.2604 9.48869 7.33406 79458.9 -153232 -55239.9 171819 -256470 139793 
148 1 36.4856 49.7341 9.53653 7.71273 -115416 159295 -315578 151439 -161776 41536.4 
132 1 40.8793 47.386 9.40604 7.49134 223184 -436287 111462 -84821.7 -133557 -1644.04 
149 1 39.4144 49.8326 9.45367 7.92885 -10228.5 -532417 -184184 19914.5 -49328.2 19749.4 
136 1 43.8232 47.321 9.40259 7.554 401317 24604.4 435277 15161.5 -13232.3 26650.9 
150 1 42.2858 49.7905 9.41282 8.0733 8525.81 -326792 215396 -103263 -216519 -75546.7 
140 1 46.7339 47.2967 9.303 7.4039 62909.8 -27130 115270 146537 73043 34564.6 
151 1 45.2241 49.8202 9.33069 7.65651 184791 -163211 42195.7 5701.87 -121632 -74398.2 
152 1 48.1211 49.8588 9.35908 7.89455 278927 -186412 -65495.9 12074.9 -29469.2 -215074 
144 1 49.5896 47.3035 9.29102 7.66461 -380376 -105099 -111118 -55067.3 -72798.6 48397.3 
154 1 46.6759 32.3639 14.284 39.9892 323328 163128 571359 -27664.4 -31279.5 86348.3 
77 1 43.621 33.9657 11.9047 28.6322 791680 327206 685596 -139661 51585.6 -72913.5 
163 1 42.4115 34.8129 14.3263 25.3779 -149258 44021.3 399902 -289611 -19833.2 -6950.44 
79 1 46.6258 33.8726 11.896 11.4518 673537 478895 467705 -76122 29496.7 60432 
167 1 45.1563 34.7409 14.2212 10.8039 -440517 -52625.2 224018 107247 -111946 132092 
156 1 49.4323 32.3702 14.3281 39.3659 415893 172761 281120 94542.6 22808.7 81659 
81 1 49.4948 33.9042 11.9827 12.0073 475099 486793 706838 -9553.18 142957 145672 
171 1 48.0146 34.8239 14.2703 7.79223 -48724.4 -459952 163415 115664 173318 28079.9 
158 1 38.0581 37.4095 14.3998 26.9546 14720.5 -210836 329284 -212344 42597.5 -271854 
86 1 39.4242 36.5293 11.9694 26.7767 288686 239012 815885 -240258 216871 80612.9 
160 1 40.8488 37.3415 14.3833 10.549 -56834.9 -35608.7 311650 -24814.4 -13718.7 26820.7 
90 1 42.2622 36.487 11.9766 10.2457 -29608.5 307205 268571 -102199 -198374 -2481.89 
164 1 43.7329 37.2481 14.2762 8.02087 -242939 -193955 -192170 -281270 -77110.3 43235 
94 1 45.1436 36.3823 11.9171 7.7641 322052 243476 -207167 -128411 29195.8 -41930 
168 1 46.6253 37.2585 14.2101 8.00157 -170937 -340226 132359 158612 -11415.8 -17466.9 
98 1 48.0802 36.4289 11.8649 7.80569 247607 -89824.9 36395.7 164196 21934.2 -165928 
172 1 49.5113 37.3282 14.2119 7.83343 -220495 -823947 -131362 71978.3 -18773.8 151428 
83 1 38.0403 38.9965 12.0034 11.8848 -453526 206515 93370.6 -311564 -159582 -74485.1 
177 1 36.6234 39.8871 14.3458 19.0828 171598 559032 471184 -139291 -13567.7 -1603.25 
85 1 40.8223 38.9869 11.9903 7.98788 -528378 -185983 -140887 26667.1 -16420.5 -102116 
181 1 39.4435 39.8117 14.3097 7.75642 -543731 -130397 -291367 -147264 34849.8 -202073 
89 1 43.7217 39.0019 11.9321 8.00827 347660 556040 84480.7 -25801.1 -230867 -21675.9 
185 1 42.2715 39.8219 14.316 8.16782 -43964 249162 -18656.2 -197867 -130795 -140940 
93 1 46.669 38.8611 11.8128 7.22268 344220 -47067.4 -136829 -5119.57 -77030.1 43550.7 
189 1 45.1898 39.7393 14.2429 7.80102 64685.1 190687 225426 -34387.3 -188722 -95134.6 
97 1 49.5857 38.8958 11.8793 7.58038 -318086 -525170 -325460 -129876 -56982.2 13658.4 
193 1 48.0702 39.7214 14.197 7.73927 -264683 -216155 230464 209088 -37388.4 -59518.6 
175 1 35.0212 42.3997 14.381 21.2217 384965 149508 176603 -115233 -74309.7 123701 
100 1 35.0773 43.998 12.0768 12.4081 -50324.2 -6774.31 260337 -38668.6 -138621 -41143 
104 1 36.5663 41.5926 11.9748 12.6369 -140126 -5298.69 -98659.2 -280344 -138888 -382671 
178 1 37.9075 42.4444 14.3246 7.68132 122836 -217002 -38413.4 -202497 -298851 -137319 
103 1 37.9314 44.0927 11.9534 7.41985 -214858 -214666 -52408 -213902 -193542 -13235.2 
107 1 40.8181 44.0409 11.9287 7.77953 -23519.8 -190573 -90327.1 -115468 -238837 -166104 
108 1 39.4013 41.5016 11.9646 7.71761 -320163 70680.9 35721.9 -60398.4 -161860 -28039.5 
182 1 40.8023 42.4124 14.3217 7.83737 190568 -59808.7 -170185 -86.2027 -83293.7 104996 
112 1 42.2188 41.4997 11.9442 7.47562 181877 134425 51438.9 86052.9 -236779 -79013.9 
186 1 43.7671 42.2965 14.2289 7.80949 386540 351717 222844 17031.9 -200012 -95396 
111 1 43.7263 44.0161 11.8152 7.82649 424627 92207.3 18322.9 126478 -19730.1 -251599 
116 1 45.2535 41.5025 11.8413 7.83314 245824 406647 33608.8 -214703 -293522 -121383 
115 1 46.7591 43.8999 11.7264 7.42614 400765 16447.4 98458.8 -162233 -169162 -182039 
190 1 46.6719 42.2442 14.1607 7.70063 -11002.7 398811 240810 -50681.6 -298862 11012.9 
120 1 48.1005 41.3846 11.7099 8.06855 64525.2 -39508.2 98992.2 190588 -80439.2 -237931 
194 1 49.52 42.2597 14.1835 7.78012 -116092 328761 202135 48002.5 109223 -32491.1 
119 1 49.6306 43.9097 11.7008 7.41423 -316537 404500 297217 -146731 -2809.55 -165152 
126 1 33.6059 46.4368 12.0506 12.8419 -362770 -83539.3 -423750 193923 237864 -206858 
199 1 33.6145 44.8366 14.4283 19.9312 6034.6 -19377.3 -34474 206584 -58633.6 -24770.8 
130 1 36.4519 46.5452 11.9105 6.9551 -410900 -197126 -280517 313860 -310524 45725.6 
203 1 36.4533 44.8786 14.3393 8.0473 -257465 -573147 -223395 152216 -303046 -349027 
134 1 39.3442 46.5293 11.8454 7.66934 -18323.3 -341067 93917.8 -54798.8 -191200 -121406 
207 1 39.361 44.8519 14.3124 7.9031 -10866.4 -599584 -201367 42424.1 -136396 -256429 
138 1 42.2749 46.4482 11.7492 7.49491 399293 -338194 171469 76912 -33295.4 -119254 
211 1 42.3243 44.8201 14.1725 7.50501 216779 182671 -42177.8 -86779.3 -258682 -72089.6 
142 1 45.2486 46.4718 11.7773 8.08115 395914 36561.2 7977.68 -338178 -253844 -64954.5 
215 1 45.2355 44.8282 14.1022 8.25355 193220 428931 66241.3 -121934 -153569 80858.3 
146 1 48.146 46.4806 11.7104 8.08484 103382 523343 354177 -84925.9 -110868 2251.41 
219 1 48.0959 44.7806 14.0781 7.89736 -152329 429987 241759 -110644 -119580 -84478.6 
122 1 32.2228 48.8867 11.9386 27.4563 -8796.09 -62928.4 -35105.1 5997.25 -747.308 -95759.9 
197 1 32.2888 47.3448 14.2545 25.287 -224166 -183432 -91639.8 69562 288070 -29792.3 
223 1 33.6427 49.8007 14.2837 10.4993 -3265.46 312163 109771 27745.4 44658.1 -11938.8 
125 1 35.0454 48.9909 11.9224 7.53727 -281586 -231223 -127865 327311 3850.32 53702.1 
200 1 35.1008 47.3517 14.3268 7.52355 -557361 -401888 -70312.5 213710 -161724 93835.7 
129 1 37.9476 49.0249 11.8422 7.75955 -23366.9 -102602 261053 57067.5 -146148 83943.8 
204 1 37.9543 47.3243 14.253 7.81646 -377085 -126691 73362.1 170874 -204465 72605.8 
224 1 36.5106 49.8024 14.2943 7.68688 126975 -120673 186524 -2694.29 -122181 -226516 
225 1 39.4443 49.8115 14.2293 7.95118 -15666.9 -44963.2 192621 167464 -125639 -11454.1 
133 1 40.8561 48.9585 11.8339 7.74439 -99585.7 -325839 -87997.4 36221.3 -58667 10436.7 
208 1 40.8343 47.353 14.1776 8.17658 -8932.36 -1345.15 50491.8 72034.5 -62178.7 155649 
137 1 43.7267 48.9952 11.7389 7.9781 -182646 25740.5 5879.89 35735.6 -111324 -46243.3 
226 1 42.3137 49.8697 14.116 7.90747 -214793 -331163 -2317.6 36886 -124801 8605.88 
212 1 43.7205 47.3705 14.1503 8.12295 215431 183303 189861 -13732.4 -42181.4 -799.438 
141 1 46.5893 48.95 11.6739 7.35482 334824 -153175 28994.4 26854.9 1670.57 149185 
216 1 46.6283 47.3791 14.0668 7.61532 159125 107560 51011 -196828 -126593 108531 
227 1 45.2034 49.8669 14.0547 7.65102 -218574 -341059 222142 12986.9 85499.9 -54567.2 
145 1 49.6572 48.97 11.653 7.4991 204652 -134516 423454 -118675 -115598 31309.2 
220 1 49.5377 47.3352 14.0592 7.74465 -208764 262719 98818.5 42327.8 13989.5 -16033.9 
228 1 48.0486 49.865 14.0641 7.82624 238166 64350.7 678253 78846.9 -135601 -57439.1 
153 1 43.6913 33.9371 16.6687 28.9104 528957 443234 663616 -18785.8 -179796 -4741.42 
155 1 46.5691 34.0522 16.6233 11.7997 257684 -26916.5 245198 140693 72639.6 239001 
157 1 49.4925 33.979 16.7005 12.2057 618370 322580 371595 -25185.5 21121.1 30605.3 
162 1 39.4856 36.4627 16.7759 25.8045 466231 403911 628060 -337865 -12538.6 -132631 
166 1 42.3606 36.4619 16.6606 9.77914 -294936 140128 -108129 -200757 -97788.5 172046 
170 1 45.1496 36.4493 16.6094 8.18291 -238351 84757.2 200607 258751 -348876 19942.7 
174 1 48.09 36.5256 16.6395 7.60302 -144905 -14998 83341.5 21215.3 -108309 -98730.5 
159 1 37.9682 38.9292 16.6753 11.9505 263685 379337 -77417.5 -343016 -142227 -29046.6 
161 1 40.8282 38.9598 16.7549 8.07336 195361 220533 60342.2 -136817 -102797 -145721 
165 1 43.7426 39.0052 16.6428 7.9434 160761 307055 323307 -149059 -6699 3113.95 
169 1 46.6455 38.9536 16.6044 7.96111 58142.5 96352.1 75861 102899 -133200 106717 
173 1 49.534 39.0172 16.5633 7.46897 -393122 -284907 -273802 6078.64 102102 5138.7 
176 1 34.9481 43.9449 16.7527 12.7133 223702 95572.2 -117581 90965 -197114 -147252 
180 1 36.396 41.4946 16.7306 13.137 402526 580528 475543 -115677 -144914 -57709.7 
179 1 37.8939 44.0369 16.6786 8.03349 297622 130277 -285991 193729 -33402 -151769 
184 1 39.3264 41.4969 16.6231 7.86334 304469 550107 48202.9 71071.9 -84394.1 -66784.6 
183 1 40.8125 44.1004 16.6561 7.46458 307208 256936 2223.61 177585 -84042.2 -129276 
188 1 42.1956 41.5125 16.6162 7.54031 260428 475897 -131065 116329 -109134 -170897 
187 1 43.7661 44.0556 16.5028 7.99927 343132 413229 299008 21908.3 -106336 -70850.3 
192 1 45.1639 41.4753 16.5629 7.98171 469724 331636 -15584 -19398 -142448 -71339.2 
191 1 46.6535 44.0577 16.506 7.80486 50616.3 160227 72309.1 83282.5 50023.8 -1672.65 
196 1 48.1084 41.5011 16.5317 7.80642 -170642 121223 -88562.1 -21243.2 4798.72 63679.4 
195 1 49.5664 43.9705 16.4886 7.64824 -183208 -211941 24317.9 -22946.7 -28460.5 -41280.5 
202 1 33.6102 46.4931 16.7017 12.5921 -103497 66371.5 -57218.7 -83985.6 158868 -50406.7 
206 1 36.4455 46.4866 16.6492 7.60456 66700.7 142156 -250017 241063 -272603 -92345.5 
210 1 39.3662 46.559 16.5493 7.98281 90285.9 -189108 -253007 251892 -91802.8 -188675 
214 1 42.3025 46.5548 16.54 7.91839 151109 39817.3 168746 -29959.7 -97515 -66745.6 
218 1 45.225 46.5171 16.4395 8.23171 42606.9 -244473 111195 -67184.9 -55445.1 43461.6 
222 1 48.1179 46.5 16.4073 8.4073 30492.9 110467 363306 -135091 14454.9 42561.2 
198 1 32.2206 48.9881 16.6553 28.7828 40362.5 573988 701103 19472.1 7504.91 139556 
201 1 35.0103 49.064 16.7242 7.49228 -145322 122332 -173463 -53810.8 -94497.3 -36941.2 
205 1 37.9403 49.0288 16.6682 8.21088 247414 105668 -244087 209298 -257612 157832 
209 1 40.8641 49.0334 16.5462 8.06975 113937 25709.4 59412.1 -83318.2 -290536 815.479 
213 1 43.7618 49.0422 16.4536 8.03996 -69388.7 -123695 100093 -106875 -43232.7 -158990 
217 1 46.6379 48.9914 16.565 8.17248 -1125.08 -274234 -46104.3 -67115.7 22562.1 41729.8 
221 1 49.5637 49.0211 16.4399 8.09162 -154190 -105844 214247 113057 124240 9845.84 
232 1 49.506 32.4966 19.072 25.8626 169119 -604644 -218724 116015 -71514 -131576 
239 1 42.3024 34.8986 18.9911 24.0059 278759 -397816 416048 -257987 114821 -40275.9 
229 1 43.687 33.9755 21.3969 28.222 615063 126539 769566 -110179 218954 -81264.6 
230 1 46.7665 32.3729 18.842 51.4188 366682 377829 573017 -110051 -68966.1 160611 
243 1 45.1315 34.7573 19.0079 10.0657 486784 386512 487436 -213813 72305.9 -133570 
231 1 46.6246 33.8163 21.3644 11.8162 1.06565e+06 693932 874350 -60482.6 40904.5 116789 
247 1 48.0744 34.8551 19.0303 7.86263 176452 -661286 -56235.9 240426 64223.1 -311937 
233 1 49.5887 33.9734 21.3725 11.8406 247729 148610 -216656 -48742.8 -243.741 -483287 
234 1 37.9828 37.419 19.0225 25.6497 112381 -94797.5 266592 -134047 -49725.7 159536 
236 1 40.8063 37.3014 19.1156 10.1289 -220129 -135243 -183712 -3147.91 -263580 -37469.8 
238 1 39.2785 36.6024 21.4288 26.5383 348900 -50669.9 666674 94480.7 47950.5 64031.7 
240 1 43.642 37.3064 19.0813 7.54956 -228391 -124026 171785 -264959 -65585.7 -197152 
242 1 42.2242 36.3888 21.3908 9.87399 422357 273344 -345054 60854 72917.6 78210.4 
244 1 46.5153 37.2905 18.9433 7.46464 365322 239777 124121 64313 -110005 -56263.9 
246 1 45.1458 36.368 21.4142 7.26816 353253 172733 125734 -38677.9 22016.8 -70091.2 
248 1 49.5177 37.3518 18.9321 8.16956 122036 -368598 -269426 133799 5888.48 -250840 
250 1 48.0403 36.4452 21.3064 7.75115 514814 418488 -150350 223702 5446.54 -187040 
253 1 36.4911 39.8654 19.0906 20.5127 247997 191231 479353 -179370 -74472.5 47808.4 
235 1 37.8448 38.9334 21.4558 13.0866 318822 -72749.7 627752 120548 -57371 964.999 
257 1 39.3468 39.8503 19.0763 7.77307 -12589 -447717 -98243.9 -173027 -94927.4 -324240 
237 1 40.8149 38.9996 21.3684 8.24531 492102 -93207.1 -105934 -52468.4 -16004.8 -126781 
261 1 42.2742 39.8156 19.0295 8.16578 73740.9 -138043 -68679.8 5259.13 -44011.8 -213557 
241 1 43.7978 38.9346 21.3836 7.55401 126553 251959 -50148.2 -35386.5 -19255.5 -36645.4 
265 1 45.1732 39.8491 19.0013 7.58481 190278 -3775.28 82754.7 157801 -105572 20046.4 
245 1 46.5898 38.9455 21.3225 7.68734 126650 379882 192534 103037 -139999 109081 
269 1 48.0933 39.8094 18.9077 8.26492 192487 156183 -107224 171770 -152779 -185184 
249 1 49.5714 39.027 21.2294 7.89635 236004 87002.9 -95893 127990 -14947 56525 
251 1 35.0271 42.3489 19.1006 20.8175 242648 440837 233918 -154214 38635.9 56791.2 
252 1 34.9713 44.0188 21.4294 12.6689 170146 454876 263234 -178286 -15579.5 34018.2 
254 1 37.8814 42.3173 19.0299 8.27607 84884.4 -47561.2 229159 27345.5 -150997 -37654.6 
256 1 36.4127 41.4551 21.4565 12.9801 163149 342377 12393.9 -119673 75025.9 -144482 
255 1 37.8487 43.9706 21.4027 7.68584 329606 223417 146645 2844.47 -151729 -92886.6 
258 1 40.7881 42.2837 18.9543 8.1062 220409 162406 103493 -1462.52 41749.8 -175406 
260 1 39.3066 41.4137 21.3674 7.40908 448911 -90715 -181849 175425 22861.6 -102640 
259 1 40.7784 43.9341 21.3189 7.65606 490309 333623 163794 134298 -134699 -11958 
262 1 43.7258 42.2938 18.9112 8.07769 161011 221863 366657 215236 -60032.6 -124814 
264 1 42.2659 41.4586 21.3454 8.04905 155747 59243.9 190601 -114472 -6031.77 -150969 
263 1 43.7139 43.9661 21.3116 7.72928 303246 122041 20392.1 269138 -221087 -79364.4 
266 1 46.6018 42.3509 18.8644 8.36619 77427.7 196215 372915 6838.24 -133072 -104217 
268 1 45.1108 41.5052 21.3412 7.81054 218354 159479 242853 165446 19443.6 -208641 
267 1 46.643 44.0178 21.2537 7.76484 275145 419528 210553 -24662.6 -23340.8 -6616.89 
270 1 49.4797 42.35 18.8939 7.5154 205897 45969.1 -262688 -77018 7765.44 -134956 
272 1 48.0829 41.4609 21.2309 7.74397 547234 215909 367052 23347.6 87555.7 -21409 
271 1 49.5232 43.9848 21.2044 7.81238 269549 116117 15733.8 -3054.91 -125568 -145075 
275 1 33.6563 44.9826 19.0532 18.2254 -257195 -147915 -135426 55954.8 100115 44139.6 
278 1 33.5511 46.5513 21.4245 12.527 221159 481759 75083.6 -120873 -255000 -98572.8 
279 1 36.4434 44.834 19.0082 8.12821 -140619 228621 -58532.5 53271.5 -3701.81 -129741 
282 1 36.4568 46.5211 21.33 8.02662 37778 118388 -61636 116149 -216805 73933.3 
283 1 39.3729 44.8398 18.9784 7.92234 502213 418233 86910 88975.8 -76245.8 -239116 
286 1 39.3114 46.4615 21.3551 7.58392 250853 153642 76114.6 149812 -50107.6 -12163.5 
287 1 42.3567 44.824 18.9643 7.63486 509925 309968 322699 26187.3 -229177 -74265.5 
290 1 42.2585 46.4922 21.3235 7.70701 504249 238085 27139.9 130360 -118725 21683.3 
291 1 45.2773 44.8845 18.8473 7.71741 -157061 -85380.2 226728 285568 -22313.8 -138019 
294 1 45.1901 46.5535 21.2031 7.79961 309660 306599 179095 263309 -99471.1 92340.8 
295 1 48.0878 44.8772 18.8551 8.00309 -311858 -34827.6 105577 48460.5 -125477 -142824 
298 1 48.0759 46.5277 21.1768 7.95803 224412 499606 43138.3 61661 -67797.9 -144784 
273 1 32.3358 47.4308 19.028 33.5621 -534141 -98754.2 174899 252637 580.362 41686.6 
274 1 32.1872 49.0749 21.3788 28.2193 532104 793812 974125 -1167.06 -6369.84 -32655.9 
299 1 33.612 49.9813 19.0059 10.0221 -42594.6 281501 266194 153547 110233 -155371 
276 1 35.0752 47.4364 19.0801 7.41433 -659619 -356848 -239010 -224481 -220814 83022.4 
277 1 35.0775 49.089 21.3615 7.80957 140793 33620.6 -292219 -32364.5 85251.4 -138351 
300 1 36.4572 49.887 19.0084 8.20969 -434079 -380181 -197870 -226529 -54886.5 -50089.4 
280 1 37.9521 47.3793 18.9267 7.8753 145838 37537.5 -119899 -26228.1 -25062.3 112280 
281 1 37.9403 48.9929 21.3189 7.8388 145984 254451 159240 -5247.48 -32863.5 53791.7 
284 1 40.8632 47.3602 18.9338 8.13346 320466 387366 412870 -45200.4 -65794.8 -75689.4 
285 1 40.8458 49.0019 21.2877 8.22757 493969 586812 236334 156081 -93593.6 -195661 
301 1 39.3559 49.8664 18.9328 8.19334 262144 -4462.26 153436 -103868 -210499 -200806 
302 1 42.3386 49.8226 18.8562 7.93657 375090 388550 332876 -118245 -72634.1 70951.3 
288 1 43.7462 47.3057 18.8549 7.7634 -10386.4 36409.2 325955 26035 -315747 -48294.2 
289 1 43.7884 49.0037 21.2718 7.85547 369472 353078 281980 95535.6 56615.4 3499.58 
292 1 46.649 47.3668 18.8348 8.2212 42852.1 -548639 -63958.8 -51434.3 -108487 377457 
293 1 46.6868 49.1203 21.2023 7.17196 118223 295072 93722.8 -120834 -126487 -10088.9 
303 1 45.2185 49.8225 18.8551 7.72548 28696.9 211475 -16600.7 173898 61335.6 -23121.8 
304 1 48.1374 49.806 18.8269 7.37391 -131158 217638 -102149 -113086 -113509 95794.8 
296 1 49.582 47.3286 18.8079 8.05975 -90066.5 64826 194271 221822 70217.2 67279.4 
297 1 49.6132 49.1249 21.1784 7.39163 -52492.7 264434 62258.6 -55506.9 -153394 38984.9 
308 1 49.6655 32.3989 23.7832 31.2588 884888 261778 410691 5546.17 4423.69 -97858.6 
315 1 42.4701 34.8564 23.7727 26.3464 173556 -241117 -27012.2 -102991 -55011.4 -85121.6 
319 1 45.3087 34.7407 23.7605 9.67321 32678.6 223058 -36481.4 56702.6 116109 326061 
306 1 46.8521 32.3936 23.784 54.0165 493843 -9677.46 237093 13729.6 18553.6 -44566.1 
323 1 48.1777 34.8572 23.6564 7.72344 -3196.52 -88573.5 129577 -109180 224975 65913.9 
310 1 37.9936 37.3901 23.8786 26.5904 461622 268258 52293.1 -22325.6 -212813 -1610.06 
312 1 40.914 37.2762 23.7483 9.67753 400949 292082 101424 -42394.4 61283.3 23030 
316 1 43.7921 37.3148 23.7206 7.88997 -247312 -140607 -213349 -270362 176927 28149.8 
320 1 46.6365 37.3628 23.6936 7.90461 23192.2 -102872 24348.6 9818.19 49103.9 -61871.3 
324 1 49.5662 37.3702 23.6057 8.27693 100603 80988.8 314116 103612 63113.9 -5897.62 
329 1 36.447 39.8806 23.8173 21.4647 542012 138451 195898 -113040 -47681.2 17902.2 
333 1 39.4152 39.8697 23.747 7.38471 368726 145108 23129.8 -25755 60926.9 25423.5 
337 1 42.2773 39.8282 23.7483 8.22182 65940.8 205767 63849.8 47929.3 -295935 58993.7 
341 1 45.2045 39.8077 23.7574 8.13527 -310593 -151665 -539504 59283.6 38173.8 50922.6 
345 1 48.0629 39.8421 23.6759 8.11859 -10644.8 209407 395298 -129669 103225 65036.8 
327 1 35.178 42.4069 23.771 17.4976 -541446 -64393.1 -217377 31658.2 -9165.8 15014.2 
330 1 37.9299 42.3112 23.758 8.0067 -442265 124942 -128767 -77658.7 81026.1 117710 
334 1 40.8799 42.3672 23.7291 7.59502 173231 -18975.4 97255.9 -13892.8 28582.9 71888.5 
338 1 43.7417 42.3364 23.6943 8.19203 -108477 171842 -176280 104643 -7370.66 -36703.4 
342 1 46.6359 42.3864 23.6587 7.95524 96211.3 197249 2694.93 1592.19 -145124 100675 
346 1 49.5283 42.3868 23.6421 7.90541 -51015.3 -316352 175575 93960.2 -32601.4 -91940.9 
351 1 33.6743 44.9263 23.8102 20.5506 -204451 286464 122080 -294999 -38383.5 482.493 
355 1 36.4521 44.9296 23.7421 7.61862 -342374 -42493.1 145331 -287400 114326 3649.76 
359 1 39.3396 44.8496 23.6754 8.17878 237840 -33727 -62870.1 -75993.3 -126893 71265.8 
363 1 42.3022 44.8409 23.6169 8.24382 106897 -228307 -26345.9 -38322.1 69075.2 124270 
367 1 45.1767 44.9025 23.5743 7.87528 75362.8 42741.2 194263 -46398.2 9795.86 -156295 
371 1 48.0812 44.8758 23.6099 8.12674 -47302.9 -289077 170399 79080.9 -142652 -121796 
349 1 32.2496 47.5182 23.8344 27.7851 -400413 359058 337020 -62150.7 -25073.6 -235832 
380 1 48.0919 49.8683 23.564 7.67726 182353 230276 -78153.9 -120912 -63977.1 48872.2 
352 1 34.9653 47.4065 23.7133 7.41022 -455471 -108572 28887.2 -255963 39459.1 -96499.4 
356 1 37.9261 47.3706 23.7002 7.89768 222582 51645.4 116907 -6891.12 93723.6 57648.1 
376 1 36.5153 49.9005 23.7186 7.97137 152009 198200 -251954 -81575.3 80443.8 -19807.6 
377 1 39.438 49.8898 23.6477 8.2491 34095.1 129674 -39361.3 -39418.3 -188006 111415 
360 1 40.8066 47.3138 23.6815 8.04092 -61449.2 146653 52972.8 -18091.7 1137.43 -67160.6 
378 1 42.3089 49.8381 23.5885 7.88666 -37033.8 249130 148823 204068 87119.2 -35993 
364 1 43.6883 47.3587 23.6463 7.58662 283693 -47877.9 199430 54375.4 -36718.2 58069.6 
379 1 45.2104 49.8876 23.6154 8.12449 183733 356409 264904 -12345.2 -118091 -106222 
368 1 46.6812 47.3376 23.5799 8.06783 237036 20547 217886 11913.6 -8419.18 -47885.5 
372 1 49.5614 47.3404 23.5133 8.10582 -70097.2 208957 333058 9298.09 122490 -65059.5 
305 1 43.8869 34.0806 26.0725 22.5345 146292 53788 344780 -142417 31260.5 213994 
307 1 46.7502 33.9957 26.0553 13.6677 358193 311286 183271 -186083 -171801 40477.3 
309 1 49.6302 34.0092 26.0803 11.8503 255468 245178 396955 25174.1 186419 89979.5 
314 1 39.4145 36.5275 26.0525 28.0656 360720 170278 415015 -242258 -230501 233743 
318 1 42.3424 36.4657 26.0558 10.3064 133540 144857 -331643 -28740.8 -172109 -213907 
322 1 45.2256 36.5431 26.0971 7.9661 33231.6 116535 -39090.7 -173943 133741 -141.186 