ITEM: TIMESTEP
100000
ITEM: NUMBER OF ATOMS
5538
ITEM: BOX BOUNDS pp pp pp
0.259222 99.7408
0.0641917 99.9358
-8.38432 108.384
ITEM: ATOMS id type x y z c_csym c_2[1] c_2[2] c_2[3] c_2[4] c_2[5] c_2[6] 
11 1 42.0379 35.0959 5.03945 72.0098 601190 -286515 113594 -463885 138973 -203120 
15 1 44.9262 34.8783 4.97351 40.2514 1.10347e+06 379714 425535 37924.1 -149095 -27688.7 
19 1 47.8967 34.904 4.88932 39.1476 509626 95176 -64707.2 1849.11 -172742 -11444.8 
8 1 40.543 37.4722 4.94497 41.6791 823273 494461 382076 -30828.5 167256 16019.9 
12 1 43.5237 37.3436 5.03565 21.4407 550325 163852 18489.8 -357155 -82798.8 -102319 
16 1 46.3863 37.3181 4.85016 23.1575 461413 446356 360667 59523.6 50222.1 44748.7 
20 1 49.3113 37.3416 4.89273 22.6486 315309 -22828.9 -285174 -49973 143415 -53644 
29 1 39.1725 39.9306 5.01578 37.6085 335371 413164 33335.6 42105.4 -57200.9 91017.5 
33 1 42.061 39.9766 4.96877 22.201 901818 626336 -221827 -13397.7 108212 -69755 
37 1 45.046 39.8382 4.77904 23.2961 12638.6 371673 564224 -207193 -178014 -2209.37 
41 1 47.7679 39.8752 4.85506 22.1962 -188452 300819 248924 -85537.6 75240.3 77388.4 
26 1 37.829 42.4326 5.14162 33.0663 -112752 398337 -503857 -189124 -49456.7 41731.8 
30 1 40.5991 42.4167 4.89749 24.3741 325291 472297 419430 96863.6 24688.6 -53121.5 
34 1 43.5616 42.4446 4.91201 22.2096 79276 422689 10248.7 -344277 -70352.4 40619.1 
38 1 46.3218 42.2961 4.83195 21.0283 -149634 -127492 200211 18061.1 105663 26319.9 
42 1 49.2597 42.28 4.87166 22.457 344990 165588 -117231 13773 -125997 135549 
51 1 36.2865 45.0033 5.11867 36.4037 446282 220815 -537072 -235800 88710.6 -430799 
55 1 39.1685 44.9253 4.98812 23.3166 300859 258892 169278 -107104 -47858.9 70188 
59 1 42.0176 44.9663 4.91989 22.4273 419399 224652 87447.8 2071.27 83706.9 42495.8 
63 1 44.9917 44.8307 4.95171 22.0081 117964 -159419 -487270 -8363.34 89740 40080 
67 1 47.84 44.8093 4.81377 24.5811 220601 897320 226341 147086 83937.7 3240.97 
48 1 34.8537 47.4177 5.13296 38.3333 465761 407733 327424 66698.8 -10345.6 55143.4 
71 1 33.4562 49.859 5.19259 45.2141 201071 554642 6075.65 303279 -104473 -268776 
52 1 37.7521 47.4257 4.9369 24.1307 662729 562205 484338 -44932.3 -13729.8 18372.6 
56 1 40.6209 47.3761 4.8907 23.9724 774445 490554 405950 106343 -19448.2 -8414.96 
65 1 46.4418 48.9927 7.17784 7.60235 -295169 53800 -273190 99134.4 -291897 -26407.9 
57 1 40.7163 49.158 7.19473 7.70574 -27070 -29217.9 167310 -59871.1 159549 163563 
60 1 43.6241 47.3078 4.95306 20.9325 616669 299974 57672.5 -174038 -97549.8 -74625.9 
64 1 46.491 47.3775 4.88108 22.5703 138971 502254 -247029 189684 -232491 -83602.8 
61 1 43.5808 49.0031 7.26886 8.0058 -103346 286080 184293 -303570 241977 24642.2 
68 1 49.3113 47.4434 4.78997 23.7694 379399 996149 259258 3776.28 111831 -34830.4 
69 1 49.2884 49.1041 7.15246 7.85361 -178080 51755 -182592 -98179.2 -73408.2 -42199.4 
2 1 44.9693 31.8169 7.40489 92.2627 131706 127315 238900 -76799.7 49809.8 28818.6 
4 1 47.7648 31.7394 7.3089 39.1951 377459 -325413 252513 -117877 -297285 42032.8 
1 1 43.4929 34.1379 7.37548 22.7384 367996 195428 629192 30359.6 -100845 -224309 
3 1 46.4205 34.1425 7.25569 7.48961 -322150 -842957 258705 -2054.66 -196565 -292356 
5 1 49.2997 34.0249 7.12834 8.12022 -471766 -534139 -73869.4 56559.6 -124547 155507 
6 1 36.3799 36.8571 7.33955 107.503 -186681 -483084 287557 -201507 89839.2 144773 
10 1 39.1385 36.7305 7.27932 27.1982 225841 -11003.7 701777 52477.9 -143614 73688.6 
14 1 42.0073 36.5319 7.36792 10.2412 528645 122292 -120834 10118.5 210822 -341632 
18 1 45.0612 36.5924 7.30886 7.13509 100018 -370003 -135823 35609.3 -105561 165490 
22 1 47.9282 36.5378 7.20431 7.18559 -379504 -674294 -526363 -551888 -28908.2 140331 
25 1 34.9769 39.1695 7.51098 36.6118 81244.6 402969 -61164.2 -168337 -56231.3 -43715.3 
7 1 37.787 39.1339 7.3444 7.77174 -512580 -630241 108017 -391703 -29492.6 -166965 
9 1 40.6568 39.1467 7.26678 7.4609 -403021 -34012.5 -72384.5 -168394 -200307 -36204.9 
13 1 43.5357 39.0684 7.29344 8.07506 -90417.5 -115618 67554.4 -25273.1 -295924 -142617 
17 1 46.3982 39.0775 7.22433 7.63821 -229264 -138667 197584 -150402 -42652.4 54909.4 
21 1 49.2921 38.9737 7.19169 8.0529 151328 -368003 3800.2 -160802 79403.7 -41250.3 
23 1 33.4789 41.5811 7.52211 41.803 592534 853460 195700 -207017 117153 61705.9 
24 1 34.8818 44.0771 7.37649 8.29172 -298433 217364 337446 -97216.4 82793 -82522.4 
28 1 36.3281 41.6683 7.36979 8.12274 -22781.6 -141057 167161 -301874 105738 85109.2 
27 1 37.8034 44.0729 7.41281 7.54505 -91833.4 -749986 -26718.1 102928 -167125 -202739 
32 1 39.2348 41.6166 7.37261 7.67644 -260532 -429955 -298915 85260.5 -519978 -15213 
36 1 42.1263 41.5848 7.26414 7.62623 -263610 -154061 -10989.1 -100245 -42386.5 -245874 
35 1 43.5596 44.1367 7.23624 7.86868 -423473 -246045 -322991 -400356 182470 -55129.7 
40 1 44.9506 41.5095 7.21814 7.451 -364532 -26908.2 302156 -14016.4 73784.6 245488 
39 1 46.4836 44.0012 7.19595 7.55636 -414104 -362593 86373 337361 -190593 92129.4 
44 1 47.8348 41.5746 7.24923 7.37414 -263780 -386243 67390.1 -13886.9 186231 150442 
43 1 49.2934 44.0171 7.22349 7.97003 -495174 -121750 -137592 -111775 238925 17708.6 
47 1 32.1466 44.0499 7.49726 38.0067 -232381 615764 -345746 -343650 -186750 -169189 
45 1 30.6412 46.3849 7.79515 98.9688 527140 872213 -83686.8 -77255 -26997.1 -238211 
50 1 33.4135 46.6323 7.46521 8.15904 395855 324132 -304859 -241760 142330 10298.4 
54 1 36.3871 46.4721 7.36553 6.99988 -18508 -387917 -511567 -117874 -294015 -463659 
31 1 40.6933 44.093 7.27584 7.41675 -44558.7 -9798.33 122319 -251102 -157370 150169 
58 1 39.2067 46.6281 7.35077 7.61905 -457626 258221 -107986 72920.8 94664.8 -211979 
62 1 42.0543 46.6055 7.30127 7.72698 111131 -277283 187372 -73204.3 165205 121687 
66 1 45.0397 46.4576 7.27744 7.567 4622.74 -733542 -334815 -354384 -306910 123420 
70 1 47.9003 46.559 7.13571 7.66399 -255755 -114154 -77719.3 186585 -233020 272151 
46 1 31.9444 49.162 7.5467 25.4021 268331 316681 135385 443375 -161932 12836.3 
49 1 34.8289 49.0909 7.51593 7.88372 214146 -109912 -5196.78 -146234 -127731 283842 
53 1 37.77 49.1052 7.34849 8.0303 377838 -16900.7 192533 300895 -304367 136354 
72 1 36.2485 49.9353 5.091 21.2074 368768 493063 -156401 -36271.5 -172730 -190989 
76 1 47.8499 49.9482 4.82484 23.2739 623493 410882 184593 104460 -46099.3 17232.8 
73 1 39.1593 49.9638 4.94143 23.8308 635167 391954 309570 -151002 -103127 105708 
74 1 42.1035 49.9352 4.94542 22.9528 465076 757481 -104642 -92463.9 301778 183961 
75 1 44.9555 49.8195 5.00197 21.285 135269 499369 -485430 36823.6 -65838.4 306146 
80 1 49.2138 32.4328 9.55252 18.5335 661733 52884.5 92615.8 -277024 -137447 -125188 
87 1 41.9695 34.9386 9.70875 26.8313 822691 192632 775979 103833 -14965.7 198395 
78 1 46.2959 32.4446 9.74043 26.2129 958433 669720 794934 1546.63 -169730 -162927 
91 1 44.9048 34.9913 9.64326 10.1137 348915 -257436 -34116.3 5252.03 -209424 105328 
95 1 47.7887 35.0238 9.55817 7.13556 50791.1 -578074 -124751 -27735.6 -186977 -17860.2 
82 1 37.7109 37.4345 9.77016 16.9774 669534 157094 911864 -96385.7 190180 -212841 
84 1 40.6213 37.3699 9.68908 10.1567 442733 -194237 132646 151094 174305 -370808 
88 1 43.5363 37.4321 9.6499 8.11392 108614 -350035 -13019.5 179366 -205095 -112468 
92 1 46.4433 37.4177 9.64653 7.76358 -304783 -758802 -116761 185181 -330998 -108769 
96 1 49.3154 37.338 9.51737 7.71778 -391701 -348447 -386781 -120078 -155502 -5179.07 
101 1 36.3886 39.9638 9.72675 12.4808 -403736 -119957 11472.9 -85986.1 -59651 -103924 
105 1 39.1753 39.8996 9.70248 7.52208 -614747 -56612.6 -295697 35870.6 -159132 29573.4 
109 1 42.0234 39.9159 9.65743 7.20534 -194761 97923.4 -250872 5144.15 -99481.7 -6428.88 
113 1 44.9092 39.8869 9.60925 7.86591 74969.1 -119764 -89602.9 -230592 -110081 -67644.4 
117 1 47.8519 39.8786 9.53482 8.20012 227521 -134465 184828 -100952 -164085 82942.3 
99 1 34.9099 42.3786 9.82347 12.9035 217936 555620 400950 79885.2 -71242.7 86628.7 
102 1 37.7704 42.4183 9.77726 8.06913 -164509 -108317 -126955 -193112 130839 111978 
106 1 40.6337 42.4626 9.65164 7.51861 48666.7 221007 7443.59 -163058 -171120 -197138 
110 1 43.5129 42.432 9.58604 7.42795 221672 135309 86004.7 -71602.5 -105800 -131490 
114 1 46.4453 42.3678 9.62775 8.29595 132256 402196 409462 203881 33080.6 -32316.2 
118 1 49.2777 42.383 9.64235 8.11753 -75217.9 125838 29616.4 -22963.8 -218340 62697.3 
123 1 33.3914 44.9406 9.70296 13.1015 464381 382524 -192769 -234378 -51234.6 -57943.6 
127 1 36.2993 44.9802 9.80124 7.30801 -153834 -122913 -160132 52995.4 150937 90917.8 
131 1 39.1203 45.0087 9.76057 7.4065 -62648.7 -480450 223029 201924 -207352 69027.6 
135 1 42.0733 44.9478 9.59579 7.88643 261850 -125818 35676.1 -168264 -74647.5 38518.9 
139 1 44.9828 44.9095 9.57408 7.82381 47615.7 -307750 -173678 -213676 11945.3 323539 
143 1 47.8848 44.969 9.52377 7.22413 -137850 -213441 263163 224757 46890.3 -208551 
121 1 32.1036 47.4709 9.77296 16.7445 -241749 -140721 -676195 128191 -70951.9 -169019 
122 1 32.0917 49.0133 12.0992 26.0777 -59152.8 189343 57842.3 39381.4 55000.9 -71647.2 
124 1 34.9512 47.44 9.7747 7.68317 -72825.2 -13628.1 -493723 66466.8 37568.6 286516 
149 1 39.2021 49.874 9.66366 7.55516 -348166 -549540 122420 -25373.7 -194930 107375 
128 1 37.8451 47.406 9.65513 8.02514 -765241 -788757 -17624 159399 114586 96214.8 
228 1 47.9482 49.938 14.1901 8.37613 114159 -522013 -249923 -250339 -232795 141236 
132 1 40.6363 47.4766 9.63516 7.90481 -441898 -267538 238161 92386.7 -133344 -361090 
136 1 43.5669 47.3739 9.75568 8.38379 121642 106721 313881 97180.1 -198692 53738.5 
375 1 33.4304 49.8212 23.8366 9.75433 -10781.2 99714.4 -92344.8 13946.3 -60245.9 65975.5 
140 1 46.4394 47.3402 9.57802 7.8557 -431059 -408587 264359 69626.9 -107052 -11023.6 
151 1 45.082 49.8939 9.64011 7.54994 -47596.3 58699.6 327728 65102.4 -214080 212436 
144 1 49.2784 47.4566 9.53626 7.16385 -517220 -820955 -182063 -84325.5 145273 -134907 
304 1 47.9768 49.8683 19.0744 8.18301 249372 104577 116988 232048 -118932 34507.3 
77 1 43.4877 34.139 12.0501 25.834 100137 123854 436985 -233766 -201438 -129394 
163 1 42.025 34.9132 14.3808 26.6386 674252 -46754.1 451377 -153120 79496.8 76273.9 
79 1 46.3272 34.1149 11.997 13.1589 -120290 -251532 -428318 -88849.9 -112553 -345673 
154 1 46.5595 32.4737 14.3021 37.9846 271854 -211642 213147 -247673 32591.2 -154495 
167 1 44.936 34.8565 14.289 10.0349 -19788 -154262 -691246 101390 30852.7 -113248 
81 1 49.2794 34.0126 11.9242 12.0081 555868 459310 225780 50340.2 80538.1 -86405.1 
156 1 49.3249 32.476 14.2777 29.3392 921184 -264184 -81558.8 -175152 -58222.5 -148212 
171 1 47.8066 34.9092 14.2207 7.72306 -268444 -860026 -278071 -487578 -47774.9 84945.3 
158 1 37.8226 37.4309 14.3396 34.3084 336272 44953 516445 -197568 83057.5 183024 
86 1 39.2503 36.4707 12.0514 26.6846 326940 652360 876174 -276456 80777.8 11446.2 
160 1 40.6754 37.416 14.4148 9.81789 -208785 -620775 -459114 231323 257609 -155886 
90 1 42.0488 36.5747 12.1318 10.9857 -694804 -450529 -382491 42792.1 -160555 -55475.9 
164 1 43.5457 37.3117 14.3375 7.92607 -453517 99119.3 -374731 38232.1 -4004.25 -295459 
94 1 44.9111 36.5781 12.0223 7.72133 -380307 -567766 -540707 93903.8 98700.5 -94546.1 
168 1 46.4067 37.4279 14.3417 7.38295 -135060 -215373 -172009 231381 48977.1 -14810.8 
98 1 47.8082 36.5259 11.9485 7.52417 117077 -208405 -640803 -15540.6 -289160 92669.8 
172 1 49.3015 37.3013 14.2623 7.37907 -339867 -615094 -66960 184061 45992.8 -92877.4 
83 1 37.808 39.0522 12.0756 12.9091 -270539 158540 -328598 -477488 53248.9 55985 
177 1 36.3126 39.8624 14.3371 22.0967 676638 612750 438932 -159376 213032 -111294 
85 1 40.6255 38.9969 11.9757 7.6234 -623020 -377366 -271068 370231 26691.9 -2994.25 
181 1 39.268 39.838 14.4161 7.92834 -55299.9 -819077 -350428 77743.7 -173108 -119224 
89 1 43.4595 39.0528 11.9688 7.70361 -439240 -766243 -213442 167770 73241.3 -120140 
185 1 42.1224 39.8959 14.374 7.64344 23502.8 -3256.66 -137663 -28976.5 181211 -39656.3 
93 1 46.3738 39.041 12.0005 7.71218 314010 -239080 -65542.4 125438 122872 -116854 
189 1 45.0237 39.8636 14.328 7.59558 470765 -33798.2 -102268 327373 236495 -30860.2 
97 1 49.3609 39.067 11.8811 7.86201 -211561 -63460.9 1235.14 159287 140416 -38400.6 
193 1 48.0454 39.8379 14.2908 7.3696 -345849 -299157 13665.2 34192.9 -100094 80323.2 
175 1 34.9653 42.505 14.4409 18.776 444538 540711 335643 -198641 70427.1 -63438.7 
104 1 36.3375 41.6055 12.0788 12.833 -213790 118260 -543795 -330125 -265669 55108.9 
178 1 37.8402 42.3204 14.3359 7.87288 -657329 40936.2 -652658 -7764.55 -231.19 10075 
103 1 37.7766 44.0504 12.1381 7.76533 34804.3 -294378 -418897 -78160.2 -42068 81464.2 
108 1 39.2281 41.481 12.0885 7.45285 -83206.3 -292939 -627074 38945.2 11477.8 -243293 
182 1 40.6311 42.3526 14.3796 7.84266 -343455 -192970 -293958 -46906.5 -40870.2 -46531 
107 1 40.6924 44.0409 12.019 7.63538 359257 228377 253449 -211790 -76052.9 -79437.4 
112 1 42.1365 41.5094 12.0204 7.47852 -451152 -267553 -72934.3 164969 -127517 -139075 
186 1 43.6112 42.4143 14.258 7.3025 310440 143526 -500177 48096 109413 -24189.9 
115 1 46.4394 44.043 12.0165 7.73091 229779 588746 651583 167747 -20945.9 -102288 
116 1 44.9173 41.4956 12.0112 7.57573 -368296 -253439 -116022 290855 350903 -97166.2 
190 1 46.5377 42.3991 14.4048 7.60512 -85677.7 362128 62984.9 15120.1 104942 66734.3 
120 1 47.8524 41.5322 12.0134 7.31242 94731.8 -35780.7 -213347 56207 -49995.4 80064.6 
194 1 49.3379 42.3301 14.2952 7.95503 -464936 34093.9 -49656 -213889 -93100.2 91073.8 
100 1 34.9043 44.1435 12.1022 13.5039 -128703 -145876 78329.8 -107102 292118 29815.3 
126 1 33.5902 46.6214 12.0698 11.6308 -593358 -582398 -181073 -175485 -14494.3 277153 
199 1 33.568 45.0654 14.4267 18.4919 -191512 -354008 -305352 -47515.4 91815.8 -98579.5 
130 1 36.392 46.5784 12.1157 7.86837 -857242 -58992.7 -23201.9 -6147.13 -179354 -73052.4 
203 1 36.3929 44.9754 14.4771 7.61624 -267820 81573.4 -200861 -105450 -30107.7 -57278.2 
134 1 39.1478 46.6171 12.1481 7.32605 -725636 -33225.4 -182294 13368.6 -72677.2 -305903 
207 1 39.2307 44.8556 14.4541 8.14307 -492902 -129739 -277491 -6617.34 -293261 137299 
111 1 43.5869 44.046 11.9694 7.96354 158777 247325 223372 48150.5 2948.13 199071 
138 1 42.0263 46.5289 12.0769 7.39264 320798 70424.7 -31802.3 25290.4 250704 43165 
211 1 42.0961 44.9135 14.4027 7.87476 201363 -304227 -109565 108559 -7667.73 -59183.1 
142 1 45.0182 46.6201 12.0224 7.69352 487393 229954 49874.5 79456.9 -202747 148231 
215 1 45.0613 44.9388 14.3924 7.62504 209316 158455 302775 -20632 165086 -202577 
119 1 49.3172 44.0435 12.0025 8.18535 -318175 -207865 304663 96842.8 67876.9 -4701.5 
146 1 47.9974 46.5537 11.928 6.91557 -402751 114632 516.711 -63262.5 -56403.5 -118507 
219 1 47.8956 44.9243 14.4033 7.38755 -97364.3 -201944 -22320.3 -32916.9 -113952 -332423 
197 1 32.1229 47.4781 14.4687 27.1357 -188886 -247916 348879 -6299.16 -124108 118956 
125 1 34.9011 49.1092 12.0934 8.26771 -154764 -208430 -131911 -317937 140250 96554.8 
200 1 34.9146 47.4999 14.4764 7.50679 -173150 -581991 -200042 -231810 -169553 -162530 
223 1 33.406 49.9488 14.4662 10.0193 -39134.8 -190858 -314398 68562.2 -15071.7 179389 
129 1 37.8362 49.1338 12.1824 7.92973 -320727 -16502 276151 21508.2 -115048 187601 
204 1 37.8719 47.4366 14.5197 7.2451 -307868 -382595 -634133 -212603 274296 -89187.4 
224 1 36.3327 49.9682 14.5283 7.88839 164589 -282880 -569259 -177233 -105848 81188.2 
133 1 40.6374 49.0622 12.0365 7.97349 -242376 -39781.6 202880 -74698.5 -150770 -60451.3 
208 1 40.6945 47.3344 14.4062 7.62564 -608156 -198635 -261854 258295 -24494 -116122 
225 1 39.2729 49.8605 14.5518 7.89832 -338122 -190051 -223974 -263689 -172677 -106562 
137 1 43.5603 49.0848 12.0728 8.20046 12121.5 -189015 -167543 349691 -67658.9 -142185 
212 1 43.576 47.4143 14.3953 8.15655 128348 -50061.6 -348654 57405.2 -81252.6 209947 
226 1 42.0929 49.9098 14.3568 7.71997 -187939 -80711.4 31548.9 103596 43339.2 35172.7 
141 1 46.4549 49.0974 11.9817 7.59051 44020.4 78642.5 -192406 -206057 -321790 106549 
216 1 46.5673 47.4378 14.3208 7.64277 -178842 -116250 96237.9 67927.9 -113616 142608 
145 1 49.3853 49.0605 11.8593 7.90152 110071 -436979 -287138 8418.63 -59284 -198389 
220 1 49.3514 47.4137 14.2672 7.524 -558247 17536 -187183 42703.3 10862.2 -270607 
380 1 48.0358 49.9421 23.7668 8.08926 235056 -187235 -101836 -32729.7 -5488.69 97927.3 
153 1 43.6096 34.0923 16.6917 25.6219 175004 105650 665816 -309638 161848 -13019.9 
155 1 46.4405 33.9712 16.6085 12.998 178455 -21875.1 -157322 168005 -8689.01 -22748.6 
157 1 49.348 33.8812 16.6247 10.6776 718998 595972 367708 -9484.06 146956 -483781 
162 1 39.3317 36.5887 16.7606 24.3041 -176609 -100672 741765 -232817 13685.1 22708.8 
166 1 42.1102 36.524 16.7341 10.2751 -199864 -17611.3 126498 70125.9 -100252 -32202.1 
170 1 45.0915 36.4438 16.7153 7.1787 144751 -349270 81864.1 -251215 -24864 -144307 
174 1 47.9722 36.5413 16.6939 7.18738 -354505 148047 -36026.5 5872.87 28859.8 202304 
159 1 37.8489 38.9282 16.8095 12.2837 291638 309326 1.1042e+06 -31932 58832.1 -200044 
161 1 40.7354 39.0031 16.7509 7.41062 -97132.5 -514526 -80294.5 103653 -26816.9 -85467.4 
165 1 43.6272 39.0028 16.7318 7.68504 38512.6 41538.7 109547 -222543 -201837 63337.9 
169 1 46.5011 38.9375 16.7355 8.11063 271459 17242.3 368108 -7348.69 -150784 -287890 
173 1 49.4226 39.0128 16.64 7.76909 -236283 -41488 -21110.4 -761.379 -67171.4 204056 
176 1 34.8275 44.0888 16.8028 12.5841 411687 527074 242167 -61026.9 -113616 -28889.4 
180 1 36.4097 41.426 16.7194 12.3839 367076 701795 652684 -355590 28482.7 -205057 
179 1 37.7765 43.9539 16.7625 7.66999 301423 479254 -110159 -145389 -231563 18020.6 
184 1 39.3046 41.4486 16.7085 7.64247 219874 54993.3 -72624.3 -19563.8 -81811.5 -282302 
183 1 40.6359 44.0322 16.7179 8.20893 -46845.2 34569.8 -462438 43375.4 -216028 14084.2 
188 1 42.2277 41.5263 16.6634 7.33051 -518803 201253 282683 -179267 -180836 -317587 
187 1 43.6073 44.0274 16.7805 8.06391 250297 108775 558142 42326.7 -36805.6 -18164 
192 1 44.9625 41.5017 16.6757 8.23866 -446760 25555 339687 -167599 51886.3 -139516 
191 1 46.48 43.9512 16.8226 8.02093 264860 296995 226239 -158289 -23809.8 -45192.7 
196 1 47.939 41.4761 16.6951 7.85801 311014 105144 -205879 92685.1 -294340 -36982.9 
195 1 49.3792 44.0442 16.6993 8.19101 37183.8 94606 -209811 179658 57868.3 377295 
202 1 33.3973 46.5208 16.8103 12.6812 322879 116122 109033 58828.6 -38048.3 -221360 
206 1 36.3617 46.6176 16.7787 8.21659 276531 206767 -283829 -193715 -5776.94 -157051 
210 1 39.2621 46.5268 16.8362 8.08516 37979.1 52959 -405837 35085.6 -37633.7 68208 
214 1 42.1581 46.5083 16.7237 7.33792 -210887 -62058.9 -491281 -25501.7 -145347 -40324.3 
218 1 45.0056 46.5984 16.6607 7.89799 -45256.8 476014 -103815 -624.247 -279968 -339214 
222 1 47.916 46.4987 16.6706 7.37471 171742 132853 -453979 142443 -195380 -395182 
198 1 32.1305 49.1133 16.8156 24.9985 -1.14636e+06 334072 -39991.1 -153114 35069.5 119792 
201 1 34.7903 49.0799 16.7856 7.24595 -1.20224e+06 -33066.8 -698254 282864 59441 -87127.2 
205 1 37.709 49.0931 16.8009 7.29044 -33924 -380563 -659256 -25141.9 25031.8 -30564.1 
209 1 40.6723 49.0307 16.8341 8.14887 145609 16875.2 -146051 252950 -156245 156051 
213 1 43.5481 49.0802 16.7683 7.89388 58423.6 -263156 14426.4 145841 -146953 -124568 
217 1 46.5101 49.0884 16.7285 7.89507 370479 -27436.8 290078 104847 -50269.6 -87734.2 
221 1 49.4346 49.0804 16.5779 7.79591 467116 150564 559285 267426 -88187.1 -123808 
232 1 49.4164 32.3398 19.0953 28.5241 329945 137539 242574 -55187.5 -65605.5 -296268 
239 1 42.2797 34.8497 19.0987 25.8568 321704 72823.7 469307 -268959 -22318.9 -94782.2 
229 1 43.6482 34.0043 21.425 27.7674 318424 124780 537842 -182309 13023.5 73558.1 
230 1 46.7354 32.3475 18.8341 40.7273 -532.812 169945 525614 -77264.9 -161000 270908 
243 1 45.108 34.7319 19.085 9.89719 -101051 58028.8 165028 -293459 -77155.9 152415 
231 1 46.5315 33.8655 21.3509 12.2776 545417 803234 673822 -29220 -181289 313729 
247 1 47.9545 34.8452 18.9404 8.10009 -498763 -391889 44535.6 51601.5 -34319.6 176674 
233 1 49.3922 34.0082 21.2775 12.0952 175898 -137228 14587.9 -10656.1 121302 -62198.3 
234 1 37.8433 37.2 19.217 31.9581 387011 576998 702675 -62333.6 -121651 -97183.6 
236 1 40.6937 37.3317 19.1441 10.1126 102904 -550010 -159133 11923.9 -9167.18 -13970.7 
238 1 39.3402 36.5335 21.5078 25.5464 12561.4 50849.5 238457 -245128 64202.2 11489.7 
240 1 43.6224 37.2994 19.061 8.00339 -350946 -263565 104043 -372353 5555.74 61994.4 
242 1 42.1897 36.4662 21.4295 10.036 -333144 10048.4 152716 -228125 -12149.2 -38876.9 
244 1 46.4232 37.2118 19.0927 7.02285 -191581 41750.5 4873.37 -33580.9 -84044 -56592.9 
246 1 45.0139 36.4471 21.474 7.03521 54281.4 294505 -270150 -38307.3 297151 -2147.74 
248 1 49.4112 37.3569 19.0185 7.76485 131589 -164112 -149851 214226 -224663 120624 
250 1 48.0049 36.5019 21.4206 7.75526 -84732.5 245737 10224.1 212779 19084.7 -86294.7 
253 1 36.4372 39.7804 19.2442 26.488 66851.3 354536 225492 -245905 -214368 -59603.4 
235 1 37.7084 38.8623 21.5149 13.1156 397757 529228 208867 56891.6 -167227 100471 
257 1 39.2684 39.698 19.2052 7.79747 -403040 103253 102664 343239 -235224 -63770.5 
237 1 40.6843 38.9741 21.4959 7.62145 -164659 -277446 -664458 -91559.6 84770 18165.4 
261 1 42.1182 39.7786 19.1942 7.89242 -729699 -283397 -198318 -307596 -57773.3 -276230 
241 1 43.5422 38.9527 21.4982 7.34 -90186.6 -219002 -417976 89096.8 63009.4 33090.1 
265 1 44.9135 39.7817 19.1125 7.19403 -214946 -315417 -86835.9 -304547 -213082 -265360 
245 1 46.5491 38.9948 21.4077 7.81322 129037 206981 -109179 310344 213723 112592 
269 1 47.9135 39.8141 19.0786 7.51373 624325 307022 117044 120797 21241.7 65920.2 
249 1 49.4007 39.0248 21.4765 7.81201 -222777 -2757.36 77866.9 19407.6 -166088 11433.2 
251 1 35.0243 42.3072 19.0378 24.6289 -219349 690765 685791 -240211 23568.8 136157 
254 1 37.7603 42.2532 19.14 8.05252 -658216 168822 110022 -314079 -138262 117252 
256 1 36.3481 41.4688 21.4965 13.1871 95809.1 532128 411422 -292505 -20205.4 -69073.6 
255 1 37.7489 44.0247 21.4456 7.87085 -95507.3 127636 112356 -23428.8 -79003.8 89093.6 
258 1 40.6205 42.3135 19.0669 8.12163 208807 422371 324558 -87433.7 -163921 -63749.1 
260 1 39.1843 41.4502 21.4828 7.83348 347836 558270 185867 238135 -56878.6 5499.21 
259 1 40.5991 44.0438 21.3885 7.55375 -25706.6 63882.4 178266 130600 133067 -49758.9 
262 1 43.5314 42.2458 19.1149 7.55583 -84519.5 -104902 -214631 -211275 134496 -27635.8 
264 1 42.1498 41.4487 21.4153 8.17697 307210 -295705 -417666 -332841 131044 -191810 
263 1 43.545 43.9054 21.4516 7.91215 506293 -49710 -659880 -195706 473557 26714.7 
266 1 46.4207 42.2599 19.0985 7.10141 152853 156079 -33996.5 116720 109083 257476 
268 1 45.0938 41.4077 21.4346 7.69548 404472 -35274.4 -452158 116257 92222.8 -28636.1 
267 1 46.5979 43.9823 21.4503 7.71564 355238 -46693.9 -470888 56488.5 -139510 82177.5 
270 1 49.3406 42.3691 18.9322 7.12965 535347 117359 -307968 -32568.3 59420 16802.3 
272 1 48.0862 41.5736 21.3704 6.58276 -47021.5 902.822 -57584.8 86224.2 -146497 -160721 
271 1 49.5739 43.9916 21.3211 7.31645 -280687 -51382.9 -398845 -315768 245.351 -20473.9 
252 1 34.8622 43.979 21.5892 13.3541 400052 841614 902275 -187006 82714.8 63649.3 
275 1 33.4979 44.8727 19.2042 19.9508 281123 1.06022e+06 547194 -335015 49854.6 -33521.4 
278 1 33.4186 46.5658 21.5701 13.0101 262996 352842 596951 -155761 26852.5 -47782 
279 1 36.3058 44.8437 19.1449 8.12386 -371901 402910 261484 -87826.9 -248164 -72745.2 
282 1 36.3271 46.5037 21.5215 8.02861 355661 99235.8 336124 232625 -77103.4 -28283.9 
283 1 39.114 44.8024 19.0609 7.12147 -511052 12357.4 -608405 38007.2 -154982 161342 
286 1 39.2404 46.4602 21.4816 8.14181 -118235 -204672 100111 232612 -112755 -28503.7 
287 1 42.0142 44.8606 19.0602 7.51296 322860 -2895.17 -148449 -128460 124790 -71000.6 
290 1 42.1039 46.4805 21.4216 7.65298 46681.5 186084 -191248 52005.9 -28175.6 89331.2 
291 1 44.9771 44.7442 19.2082 8.03033 520222 357540 -67725.6 -65433.5 84371.4 -250808 
294 1 45.024 46.4588 21.4377 8.33319 482153 331569 40381.7 123677 65407 -93841 
295 1 47.9741 44.8479 19.1009 8.27467 264668 -158938 -339011 150893 -27083.7 -239124 
298 1 47.9308 46.5162 21.3414 7.60479 384686 69988.6 -454993 -87844.9 61847.8 -194802 
273 1 32.0074 47.4908 19.0937 28.3995 534509 587396 693119 -203763 146351 39656.8 
274 1 32.0572 48.9998 21.5585 27.0568 351667 390049 554993 76377 -220584 -79109.7 
150 1 42.139 49.9166 9.67138 7.84794 433907 -101212 199037 -137847 -33829 -24159.8 
276 1 34.884 47.42 19.148 7.60243 413473 6905.43 270684 -42149.2 -33255.9 -94369 
277 1 34.9678 49.0162 21.5111 7.22346 101573 -203174 -272560 -71263.6 92462.7 2019.95 
280 1 37.8036 47.3534 19.1243 8.03543 67957.3 65336.6 -253377 2423.34 34640.4 -164556 
281 1 37.8444 49.0087 21.4448 8.13201 72397.3 -41328.5 -78943.2 -35727.4 19002.1 1609.71 
300 1 36.2957 49.8801 19.1535 7.65216 -338138 -278068 -96786.5 -167259 181862 119743 
301 1 39.235 49.8994 19.1282 7.64313 114908 -124893 -486874 110470 230941 99830.8 
284 1 40.7197 47.3553 19.1371 8.17419 -210658 98465.6 -216263 248568 -273954 201604 
285 1 40.7766 49.0612 21.5266 8.23305 -20598.5 65065.6 -107388 254022 303687 -54982.7 
302 1 42.1349 49.908 19.1708 7.49984 -45249.7 9713.62 -203728 -123501 -4018.17 58019.4 
288 1 43.5477 47.3341 19.0663 7.89064 -184461 267197 28955.7 -233959 -19179.8 1332.94 
289 1 43.6454 49.0198 21.4334 7.82065 -150337 506875 -167733 155857 -50789.4 23829.4 
292 1 46.4341 47.3172 19.0227 7.86168 -81654.6 337073 -1034.28 207690 -126099 -31533.6 
293 1 46.4912 49.0216 21.3586 8.25759 298652 561698 117913 152349 50127.7 188635 
303 1 45.0111 49.8005 19.0582 7.08295 -90566.8 -75515.9 -407210 130804 -74339.2 213375 
227 1 45.0136 49.9159 14.3625 8.03243 222853 -120469 -36328.7 84770.7 -104769 -27341.3 
296 1 49.2891 47.366 18.9781 7.09127 69701.8 -77386.8 -159074 -8243.72 120857 -156030 
297 1 49.4575 49.0179 21.3726 7.71714 201040 -45887.8 -340763 -24262.9 -179962 208135 
315 1 42.3436 34.8302 23.8552 25.5397 11078.4 -252447 267727 -169713 -262421 23977.5 
306 1 46.7116 32.3522 23.6908 53.2082 566305 -47256.5 279784 -161905 -35122 12774.7 
319 1 45.1666 34.751 23.7832 9.63026 -288438 -133357 -438004 158000 63242.8 224148 
308 1 49.5313 32.3854 23.6094 29.062 607005 98863.5 533727 34653.3 1777.47 40310.6 
323 1 48.0219 34.7771 23.7709 8.29441 -256764 -446111 88371.3 -136889 -64709.6 73304.8 
310 1 38.0255 37.2396 23.9003 27.9257 23546.7 426144 372877 -229104 31369.7 -102408 
312 1 40.8072 37.2555 23.8663 10.1707 2790.7 171314 70304.1 15857.6 -93456.9 30468.5 
316 1 43.7346 37.2065 23.8052 7.31923 -192865 -218678 -306210 -111160 344040 -65686.9 
320 1 46.6161 37.3309 23.7513 7.5873 -568103 -292313 -104296 37511.2 56236.2 -174336 
324 1 49.3973 37.3084 23.7596 7.43621 -654922 -514258 -328073 -136189 -313079 127066 
329 1 36.4307 39.8737 23.8948 19.2707 375412 406115 274483 -445902 -10731.2 -133387 
333 1 39.2989 39.7487 23.8258 8.23264 288271 350073 -30761.8 -180584 475396 92725.5 
337 1 42.2596 39.7961 23.8291 7.91504 158787 187683 -24412.3 -43503.4 156719 -94559.7 
341 1 45.1236 39.778 23.7752 7.92487 -452242 -164118 -362083 6812.33 142874 -41783.5 
345 1 47.944 39.7971 23.8233 7.54259 -305750 -532463 -270040 -173653 166146 -264221 
327 1 34.927 42.3565 23.973 27.4444 374213 709093 508467 -92600.2 -173293 95497.8 
330 1 37.7778 42.316 23.8505 8.02855 288488 24394.8 227214 -459473 165842 -103135 
334 1 40.7504 42.2925 23.825 8.36481 322578 360269 432459 12865.8 133285 -82762.6 
338 1 43.6164 42.2826 23.7462 7.83654 -84705 -387026 -382503 -14323.7 -39846.3 160705 
342 1 46.552 42.2922 23.7353 7.6973 345950 -168261 -356498 60220.7 71888.5 91091.8 
346 1 49.5328 42.2082 23.685 7.11954 -5937.71 305127 -260420 47564.7 -59475.9 -132049 
351 1 33.5069 44.9079 23.8857 19.7603 350467 327627 231853 -179615 149677 -124922 
355 1 36.3833 44.897 23.9298 7.72521 229494 183832 4563.93 -50007.2 -19384.5 -204015 
359 1 39.2419 44.7524 23.8339 7.13703 205248 252836 191860 -159147 27695.7 130039 
363 1 42.2447 44.777 23.7479 7.75915 130299 33104.4 -172708 155027 402525 -47272.4 
367 1 45.097 44.7877 23.7477 7.99764 282454 307312 -268262 155310 87971.5 24425.4 
371 1 48.1324 44.787 23.6567 7.67917 560937 771504 77638.6 -3904.97 -336978 23696.3 
349 1 32.0317 47.396 23.9124 29.7498 -161864 154358 229702 -54884.8 -103501 178199 
372 1 49.4841 47.3866 23.6404 7.98766 237962 274086 -10196.3 -240023 -79377.2 1258.59 
352 1 34.8411 47.4173 23.8837 7.7055 -176697 -545188 -482953 -91315.6 -72329.3 -26582.1 
356 1 37.8172 47.3759 23.8379 8.28815 256293 196367 195786 -75033.4 59264.2 49064.4 
376 1 36.3762 49.8382 23.8814 7.90176 220104 -250409 -386311 -27274.9 -19044 322770 
360 1 40.6862 47.2583 23.7899 7.80008 345112 806909 239844 -8973.37 -31669.8 24569.9 
377 1 39.3129 49.8893 23.7664 8.16139 494694 183109 -229593 157242 181048 94977.5 
364 1 43.6421 47.3241 23.8235 8.18727 609936 395465 128480 -53668.6 247643 197938 
378 1 42.2672 49.8817 23.8462 7.77209 48234.3 614004 -53303.9 101239 -217796 -83363.7 
379 1 45.0567 49.8817 23.7546 8.18906 -26008.9 380675 159252 -32843.2 -153988 -134710 
368 1 46.6606 47.3932 23.7368 7.46332 537600 774455 405590 44951.5 154751 -71171.3 
299 1 33.4847 49.9176 19.1557 10.0641 -386590 -23676.4 -60733.8 63748.2 -62812.7 -319853 
152 1 47.8906 49.8647 9.52559 7.75219 -461269 -195137 94943.9 252184 10138.8 58437.9 
148 1 36.391 49.9949 9.86815 7.73038 -5034.6 -42238.9 60774.9 -174119 104273 100956 
381 1 49.5253 32.3957 28.3805 39.5887 761984 -216146 298664 -323606 -24403.4 -37979.4 
305 1 43.7721 34.0933 26.0939 20.3828 -1.12945e+06 -868934 -431609 -510469 -307043 134488 
385 1 42.2879 34.8737 28.4605 24.7261 549845 -373053 704581 -162460 109313 109034 
307 1 46.5257 33.8733 26.0811 14.297 -223228 -70287.4 64352.6 286606 15996.7 128371 
387 1 45.1745 34.6792 28.4387 12.6973 121905 268172 -176696 -123206 -49282.5 72743 
309 1 49.4691 33.9933 26.0731 12.5386 313224 194404 225666 208036 -124359 294750 