ITEM: TIMESTEP
60000
ITEM: NUMBER OF ATOMS
5538
ITEM: BOX BOUNDS pp pp pp
0.259222 99.7408
0.0641917 99.9358
-8.1531 108.153
ITEM: ATOMS id type x y z c_csym c_2[1] c_2[2] c_2[3] c_2[4] c_2[5] c_2[6] 
11 1 42.2816 34.8102 5.08496 53.4514 497791 710851 342649 -277117 164330 -26803.9 
15 1 45.034 34.7537 4.93811 30.444 401547 1.0327e+06 20485.3 19289.4 -328740 -151612 
19 1 47.9362 34.8283 4.78403 35.5734 1.16067e+06 906899 363477 43628.9 93735.6 -62306 
8 1 40.8003 37.3859 4.90814 40.7289 373874 887269 475641 -452376 -45544.4 -7210.29 
12 1 43.5869 37.3166 4.89652 22.8569 12960.4 470286 -270617 -21416.3 -64315.6 2106.73 
16 1 46.4518 37.3214 4.80948 22.9906 831122 1.15362e+06 427501 156048 -57995.3 115423 
20 1 49.4067 37.3436 4.78208 23.9181 805851 991014 27477.5 64682.5 127148 111959 
29 1 39.3676 39.945 4.94727 38.1176 432685 490436 356663 -25613.8 94901.8 -52628.2 
33 1 42.2181 39.8609 4.95564 22.0087 97327.2 125451 -543373 108018 -23199 -68972 
37 1 45.0713 39.834 4.83713 24.0652 519330 580061 -33508.8 119671 225252 80986.5 
41 1 48.0096 39.9008 4.77949 23.2282 938012 894768 312554 120777 10152.4 -15173.6 
26 1 38.0174 42.3421 4.95305 38.8022 517350 373816 108782 35352.4 63884.7 10603.5 
30 1 40.9312 42.3946 4.95802 21.8391 284143 142559 -127524 356165 7666.01 -48500.4 
34 1 43.7572 42.3639 4.8532 23.2893 117204 566870 -48620.2 163855 -146068 -80366.5 
38 1 46.6002 42.4048 4.80257 23.9009 482167 699778 -78333.7 240990 -54086.3 -76333.8 
42 1 49.5192 42.3893 4.76472 23.1392 -6448.54 165080 -362677 -59685.5 -264301 130217 
51 1 36.5867 44.8937 5.05988 34.219 193042 -99763 -896166 -460229 224704 86348.5 
55 1 39.5154 44.8273 4.92649 22.2895 366065 54917.9 111510 98757.2 57223.5 -31257.1 
59 1 42.3722 44.951 4.89346 22.4034 255327 576367 1367.82 38617.6 -177823 -145909 
63 1 45.2023 44.9194 4.824 23.4331 204145 549458 -70856.1 28285.6 -118017 94103 
67 1 48.0776 44.9866 4.70472 23.152 257297 481188 180756 100040 6112.31 -141320 
52 1 37.995 47.2761 5.02135 21.2872 -1.26128e+06 -300759 -688167 -311432 106621 -48862.7 
69 1 49.4366 49.0348 7.07893 7.31419 -203170 -156668 -87364.4 -74567.3 8548.48 -19800.7 
56 1 40.7514 47.3749 4.928 21.4753 -96257.9 -169729 -272776 89132.1 128686 -76069.2 
60 1 43.7466 47.493 4.91223 20.011 538540 -141453 -432434 -116092 -50904.5 -129484 
64 1 46.644 47.417 4.76051 23.085 237414 -167438 2499.26 26834.4 24595.6 -129653 
65 1 46.5946 49.0232 7.08094 7.93723 -65306.2 -284809 253926 -236190 13251.2 -73368.8 
68 1 49.5303 47.446 4.71992 22.8575 17358.1 34726.6 169651 -81148 -17657 -123104 
74 1 42.2663 49.906 4.85486 22.8442 594597 480921 213103 217770 -72432.9 74666.1 
4 1 48.0672 31.8367 7.04611 36.1641 -190042 -212711 123184 -78238.6 142427 -133112 
1 1 43.7228 33.9578 7.39878 19.2457 166316 476012 318430 -254171 92816.6 -287340 
2 1 45.4008 32.0228 6.33527 70.4551 -114374 -372655 701158 -552949 76797.4 -612568 
3 1 46.5566 34.1962 7.15715 6.17881 -1.21886e+06 -1.94463e+06 -845350 -360520 -271930 -317641 
5 1 49.4379 34.216 7.18923 6.06779 -799987 -1.40262e+06 -563488 104152 441989 -119253 
6 1 36.5354 36.6444 7.34978 115.52 651867 573005 199601 -103630 42329.9 141433 
10 1 39.3914 36.48 7.23707 28.1199 917272 339582 639210 17678.3 -251329 26979.5 
14 1 42.2564 36.5475 7.27677 10.4335 -591470 -267587 -475372 -20416.6 153524 -17343.9 
18 1 45.049 36.5259 7.20691 7.8557 -372694 -398609 -155520 806778 73032.5 -106634 
22 1 48.0288 36.5931 7.09941 7.75813 -76076.3 -640947 108432 109185 204134 210431 
25 1 35.3022 39.1549 7.18867 35.5747 -26948.3 272479 234077 -332963 81574.3 33787.4 
7 1 38.0891 38.9607 7.2822 7.38983 -196897 276105 77503.4 -74661.1 -17854.2 73578.4 
9 1 40.9222 38.9817 7.29152 7.10858 -436550 -432937 -137095 -12644.8 194906 156833 
13 1 43.7818 39.0125 7.1583 7.45175 -350385 -755563 -287473 311741 106406 317874 
17 1 46.6622 39.1191 7.21063 7.50296 -182989 103793 289537 114570 -67682.4 127129 
21 1 49.5064 39.084 7.13792 7.96063 -223473 -42230.2 239865 -4708.24 -98714.1 -79173.7 
23 1 33.8416 41.4933 7.18094 41.2659 136222 354775 6745.56 33114.1 -2087.25 -12884.3 
28 1 36.6571 41.5518 7.28658 7.03078 -421664 -244473 -226878 -506171 -179028 -50824.5 
32 1 39.4998 41.5509 7.30128 7.35485 -593222 -402445 -249307 -158226 -152177 35219.2 
36 1 42.3416 41.4293 7.25465 7.08642 -416359 -544286 -209571 136071 -89622.1 -167003 
35 1 43.7883 43.9981 7.1648 7.42545 -146639 16271.9 70675.4 256685 -167248 -26923.4 
40 1 45.1854 41.5538 7.15635 7.76633 -466973 -282682 12961.5 218657 -142142 -39276.3 
44 1 48.0531 41.6044 7.12065 7.74159 -449924 -377136 -55268.3 -75975.8 -28665.2 3979.54 
47 1 32.4889 43.9066 7.14125 40.019 -228161 -45368.3 211191 -353539 130415 20218.8 
45 1 31.0063 46.2217 7.49633 91.18 -23617.1 507250 -117521 -110987 52285.1 -204495 
24 1 35.2402 44.0322 7.22733 7.11825 -1.03048e+06 -456167 -587219 -65899.1 207371 213082 
50 1 33.7231 46.3567 7.27636 8.65499 -352591 -719225 118937 -77072.7 -82651.9 219442 
27 1 38.0769 43.9982 7.27264 7.12726 -760344 -625119 -123588 -97779.4 -397735 -56427.4 
54 1 36.6427 46.4773 7.32694 7.08054 -611154 -744496 -993720 -273905 -294739 -348993 
31 1 40.9233 43.9529 7.31399 7.70128 -295431 -378965 -77250.4 -145569 -95192.2 -137937 
58 1 39.491 46.4757 7.27443 7.48226 -536536 -332908 -366035 -176326 -12189.3 230599 
62 1 42.3359 46.5131 7.22048 7.69573 -66385.8 81041.6 185392 -91757.5 6192.26 -217596 
39 1 46.6352 44.0708 7.0849 7.98768 -467086 -363186 -70700 50042.9 -232656 -151426 
66 1 45.2204 46.6046 7.15492 8.04581 -295180 -219766 -177891 -93459.3 -198118 48668.4 
43 1 49.4874 44.0568 7.09757 7.62385 -808984 -718087 -198591 -90041.9 262759 116958 
70 1 48.0835 46.5088 7.10267 7.46628 -287022 -387411 232749 -53653.4 -76978.9 -105940 
46 1 32.2939 48.8281 7.26806 23.2372 -50995.5 485336 168531 234525 178739 -1582.9 
48 1 35.246 47.4162 5.0691 33.8339 -371825 -99757.8 -69871.4 129720 -96686.7 -18918.9 
49 1 35.0983 48.8887 7.47122 8.18939 4814.89 -185237 -183376 107136 -368774 -21528.7 
61 1 43.6777 49.0465 7.18881 7.38334 -99076.2 -193070 -168692 64515.6 -83782.3 -362651 
53 1 38.0197 48.9791 7.22918 7.75236 -425427 -461227 -534647 -79587.9 -171214 92088.4 
57 1 40.8383 49.001 7.20962 7.96169 -535325 -179268 -177544 223927 -52392.3 -153963 
73 1 39.374 49.777 4.90214 23.0752 -362902 30492.1 -284749 192924 64552.7 99313.3 
72 1 36.6065 49.8814 5.04993 20.8344 -188149 56414.9 -372169 -162489 -356026 -81118.8 
76 1 48.0585 49.8543 4.74665 23.1186 132065 161894 14137.9 -93446 -68798.1 106730 
75 1 45.1799 49.8642 4.71044 24.01 513296 321923 442252 -194297 -108841 10871.4 
71 1 33.7488 49.7358 5.09221 48.3264 221176 264156 38835.1 240487 147151 -14479.6 
87 1 42.3467 35.0319 9.63131 22.548 394744 -633355 -164432 -16826.3 213223 -405348 
78 1 46.5436 32.3472 9.26618 26.5326 855381 634344 1.01824e+06 167018 497815 373324 
91 1 45.2228 34.8601 9.59053 10.4913 112383 74697.5 -187902 -132357 -153479 -315960 
80 1 49.4388 32.5052 9.46597 18.3094 843422 -102679 212679 221555 -50512.9 18543.3 
95 1 48.0828 34.9521 9.50161 7.96314 -165286 -336625 -530282 383350 236818 -161201 
82 1 37.9654 37.3791 9.62584 16.4164 157036 74218.4 353902 191252 42980.4 107620 
84 1 40.7899 37.3413 9.57773 9.28488 120476 -290006 -203880 224942 118607 46881.6 
88 1 43.761 37.4465 9.52386 7.17629 -163610 -517580 -501896 -39057.4 102897 -105995 
92 1 46.6083 37.388 9.48869 8.2356 -152750 -128974 160834 151462 5124.81 33646.8 
96 1 49.5041 37.4185 9.53309 7.63057 -58258.4 -523587 -16233.9 3236.77 171314 32026.7 
101 1 36.6109 39.8359 9.60621 12.6214 85585.5 -48069.5 400344 -188596 105211 128481 
105 1 39.475 39.9268 9.62364 7.40471 -332078 -588699 -428439 75827.5 -51703.7 -3598.85 
109 1 42.3436 39.8535 9.65031 7.8431 -186659 -387978 -260801 309399 24960.4 87838 
113 1 45.2682 39.9188 9.63981 8.23738 -220461 -553606 47641.6 17811.2 41888.2 -21124.5 
117 1 48.1107 39.905 9.50922 7.94746 -273926 -360817 -510364 60542.1 67837.9 -318073 
99 1 35.0225 42.3327 9.53658 12.5816 115177 -165458 375791 -351513 133303 17237.3 
102 1 37.9332 42.2809 9.65307 7.11577 -78656.4 -689855 -381591 59397.5 -71766.8 -90501.3 
106 1 40.9244 42.306 9.6328 7.89489 -47352.4 -568776 -209272 -257840 -100636 104573 
110 1 43.8107 42.3712 9.58927 7.97703 -341785 -164590 188454 167344 49612.4 -28790.1 
114 1 46.6284 42.3608 9.48936 7.80147 -443952 -380247 94991.5 -273329 57708.2 -61702.1 
118 1 49.5361 42.4081 9.44366 7.5737 -364276 -260934 -271314 -201810 -177644 75333.5 
123 1 33.6678 44.7901 9.57002 12.6048 -135187 -293200 223887 4690.98 208867 225679 
127 1 36.4575 44.6826 9.70554 6.76802 -493011 -257611 -262371 -101259 -152081 -27525.2 
131 1 39.413 44.8238 9.61897 7.60445 321330 252534 -348368 64887.1 -91816.2 -117562 
135 1 42.3268 44.8016 9.65759 7.8234 30591.1 138825 103462 -32011.1 -197176 -103143 
139 1 45.1942 44.9091 9.49726 7.60584 -430068 -299038 136828 -110280 -21326.9 -69289.9 
143 1 48.0004 44.8509 9.49355 7.07218 -470762 -215706 -87529.6 -16116.9 -87119.3 2576.4 
121 1 32.2245 47.2453 9.67587 17.1271 -126423 42888 222519 -121205 -386360 103726 
124 1 35.0754 47.2472 9.71951 7.46048 -207506 1685.62 -390114 -260929 137228 363985 
380 1 48.1375 49.8631 23.6738 7.62217 -88746.3 -481068 -358388 -39131.7 -128618 51342.3 
128 1 37.9283 47.2895 9.62775 7.37363 102862 106235 -116820 287243 -333434 -339736 
372 1 49.6324 47.3616 23.6953 7.58402 56935.3 142838 -151745 70178.1 -166774 117235 
132 1 40.8832 47.386 9.64332 7.3965 376084 89405.2 92368 47686.2 -41187 -171438 
368 1 46.7631 47.321 23.8078 7.83957 -177615 -385926 -90608.1 -46889.8 116101 93075.6 
136 1 43.7743 47.3732 9.56786 7.85225 -153645 -280695 40875.1 67729.6 -95829.9 -212448 
150 1 42.3204 49.882 9.56936 7.81216 -490751 -430567 24819.7 -74435.6 -13812.2 -179326 
140 1 46.6272 47.3566 9.50083 7.81402 -333360 -324032 48574.5 -97089.9 -97219.4 -193970 
151 1 45.1603 49.83 9.56619 8.21359 -271992 -225873 397851 99912.8 -119782 -19511.4 
144 1 49.504 47.3572 9.49366 7.89553 -189105 -156642 -135440 -3870.16 10634.7 18679.3 
152 1 48.0485 49.8897 9.47358 7.42358 -9439.3 -151027 -152804 -24691.4 111162 -71200.9 
77 1 43.8203 34.0224 12.0534 26.0794 572012 262681 682932 -257455 59733.5 -210219 
163 1 42.3429 34.9594 14.2294 24.3133 707815 31285.9 377525 -153010 156713 -30650.5 
79 1 46.7401 34.0271 11.891 12.2485 483676 434309 949481 -227102 -110348 189865 
154 1 47.0023 32.4585 14.3252 49.086 475151 -21507 585748 -211597 123945 -113282 
167 1 45.2833 34.7764 14.3384 9.93861 652437 362219 5395.32 -134301 -378634 -113845 
81 1 49.6198 34.0418 11.8157 11.6013 127050 -158781 310710 -186583 4803.46 -175214 
156 1 49.7607 32.3563 14.1271 33.2141 1.06895e+06 567376 513291 -88177 45624.6 -22127.5 
171 1 48.2003 34.901 14.2001 7.40725 71643.1 -755853 -422214 -314406 -351323 88177.4 
158 1 38.0528 37.4128 14.337 27.5402 -29379.1 110345 72070.2 92254.9 58742 -123833 
86 1 39.3614 36.589 11.965 27.6503 455723 -15101.6 305383 39985.7 -94815 -53332.6 
160 1 40.8491 37.4165 14.2249 10.453 50714.2 -437901 23500.1 -46404.1 -175149 71338.5 
90 1 42.3441 36.5072 11.8862 10.4289 217378 -121828 -472211 -128824 14552.2 -291842 
164 1 43.7928 37.3761 14.3117 7.88909 81991.2 -250151 -459661 25964.4 -113693 6402.57 
94 1 45.1774 36.4703 11.8782 7.68784 168102 3667.94 210067 143694 -62365 -314993 
168 1 46.6769 37.3275 14.1901 8.00495 -189206 93776.7 -147145 119410 35731.8 -84792.4 
98 1 48.1344 36.5116 11.843 7.52777 -286461 -266535 -536928 -52249.9 117001 -74329.8 
172 1 49.5167 37.3919 14.202 7.73723 -61703 -321196 -309458 -179904 6376.98 21496.3 
83 1 38.0455 39.023 11.9672 13.0308 -16817.1 -113843 376730 -190824 -11797.4 21478.6 
177 1 36.6029 39.8611 14.3526 21.0313 242276 224993 405884 123878 -211152 188309 
85 1 40.9075 39.0073 11.9199 7.70866 -101060 -195226 -607969 20393.1 -9273.47 256794 
181 1 39.5129 39.9161 14.3264 7.09379 -63330.4 -376609 -269866 383939 -107184 184650 
89 1 43.8361 38.9777 11.9607 7.61068 128852 -102641 -380204 137928 32322.8 -2920.9 
185 1 42.3687 39.8104 14.2552 8.34522 -283610 -436773 -309284 125122 -44502.5 15733.7 
93 1 46.7577 39.0466 11.8716 7.50491 -164849 -135747 -300066 -97123.9 -172863 137041 
189 1 45.2859 39.8834 14.266 8.08618 -144494 -306643 -67571.6 29448.7 -109440 10457.4 
97 1 49.6195 39.026 11.8816 7.73465 -476142 -513735 -230865 80820 -92282.2 -95222.9 
193 1 48.1368 39.8962 14.2138 7.4462 -269826 -313788 -489120 122945 -176147 104515 
100 1 35.0666 43.954 12.0146 12.4375 -200971 -383162 -167279 -88175.6 444990 152909 
175 1 35.2617 42.3484 14.3415 26.1619 -371372 -405178 61976.8 -173449 62438.5 95936.6 
103 1 37.9772 43.9975 11.9996 7.66261 -270070 -570732 -46784.4 27178.6 -57355.9 107738 
104 1 36.4986 41.5455 11.9586 11.4479 173322 195198 230083 -103146 403071 -121256 
178 1 38.055 42.3366 14.3435 7.46089 -138844 -318518 334744 339245 14835.7 85298.7 
108 1 39.4487 41.488 11.9801 7.8885 426587 -276005 -340580 -7191.92 100224 20499.1 
182 1 41.0354 42.3846 14.3179 7.26328 4778.93 -198907 -15978.4 -34166.2 -92920.6 44711.5 
107 1 40.8569 44.0219 12.0161 7.63599 138171 -275977 38270.4 25223.4 16305.7 218659 
111 1 43.8448 44.0525 11.9495 7.64455 -228132 -265515 -5387.91 -1482.95 -279725 -103967 
112 1 42.4072 41.4943 11.9779 7.7575 295055 84431.2 -336163 -27.2525 41463.6 -69160.1 
186 1 43.8516 42.3239 14.3463 8.27727 -745579 -106056 -125605 115511 -78425.4 61746.5 
116 1 45.2961 41.5569 11.9479 7.58906 -162427 -259374 -407154 -104322 -103778 -121684 
190 1 46.6809 42.3721 14.2724 7.88366 -881735 -315224 -140489 -62057.9 -335667 104096 
115 1 46.6615 44.018 11.899 7.83277 -429376 -168816 184014 -136699 139387 70727.2 
120 1 48.1643 41.4725 11.8133 7.12851 -619339 -498845 -240897 -246041 -74591.3 -135092 
119 1 49.5203 44.0304 11.8019 7.67002 -265575 -447793 -299427 176596 49003.3 82078 
194 1 49.4706 42.4101 14.1918 7.56214 -424022 -171943 125202 -179379 -145857 60606.9 
126 1 33.6173 46.4393 11.9788 12.7365 -227705 -87613.2 -159336 -85586.5 134849 230550 
199 1 33.7823 44.8281 14.3207 27.0704 -335567 -244607 8688.54 -197789 92893.7 -16872.4 
130 1 36.489 46.3676 12.0612 7.7125 -52047.9 -675030 97336.6 336858 -70502.3 -12834.8 
203 1 36.5783 44.7504 14.4218 7.01149 -872057 -623841 -184110 -67680.5 332.943 317661 
134 1 39.4185 46.4187 11.9759 7.86893 -34609.2 -748314 163882 99611.8 -126297 -64357.6 
207 1 39.4262 44.8629 14.4339 7.99361 -106669 -62355.9 -131122 -71784.5 134884 107013 
138 1 42.3239 46.4511 11.9981 7.72056 -23850.5 -578962 -146674 26196 104695 -138792 
211 1 42.3761 44.8499 14.3702 8.15698 -124704 -499076 32337.1 -227012 -72847.7 37916.5 
142 1 45.2522 46.484 11.9027 7.63134 157975 -381012 36235.4 -99234.4 -109745 -3013.18 
215 1 45.2112 44.8505 14.2879 7.68253 -459886 -424042 -197870 -6852.68 -186290 -62163.2 
146 1 48.1862 46.5028 11.8562 7.13758 -174506 -443670 152956 -105438 140454 30627.9 
219 1 48.0983 44.8792 14.2724 8.02129 -311441 -343615 264899 216718 -111502 82625.8 
122 1 32.26 48.9144 12.1195 26.9374 221815 317018 152764 4771.32 246202 414204 
197 1 32.3405 47.3101 14.3641 27.5214 -312699 -3165.13 130473 8567.36 -22451.9 182359 
223 1 33.7353 49.7602 14.4899 10.7087 -45380.4 19710.1 -239311 -41678.7 132815 55461.1 
125 1 35.1314 48.8429 12.1106 7.76844 328942 -97913.5 202248 121803 114896 -13488.3 
200 1 35.0999 47.2343 14.4293 7.60824 -744083 -414682 -17717.1 -182843 178315 296843 
129 1 38.0249 48.8796 12.0039 7.35454 -80312.5 168344 -8473.84 253798 -209180 16043.7 
204 1 37.9629 47.3195 14.4308 7.61606 -48491.5 -531872 195813 276674 -113199 100115 
224 1 36.6328 49.7415 14.4744 8.04692 -281139 -499600 357632 449957 -123484 -115633 
225 1 39.4616 49.7614 14.3668 7.60528 -159747 -59127.3 83460.8 166225 90991.5 -67457.8 
133 1 40.8608 48.9371 11.9873 7.49184 -206880 -118691 -250413 234511 20882.6 39606.6 
208 1 40.9146 47.3245 14.2725 7.79869 94316.5 -182841 -305761 269062 67791 105699 
137 1 43.7189 48.9358 11.9168 7.10254 293396 11038 108959 60630.1 91170.1 -132755 
212 1 43.8013 47.3047 14.3534 7.83219 -267250 -173689 -211132 26391.9 -172421 63603.5 
226 1 42.4174 49.8907 14.3299 7.3517 221051 -212272 -170020 63361.9 92532.8 -30990.4 
141 1 46.7015 49.002 11.8428 7.75197 -135477 -161892 97231.2 -149481 47427.6 14084 
216 1 46.6674 47.3166 14.2448 7.7032 9458.03 -155192 132973 179357 -78770.4 -109098 
227 1 45.3196 49.8289 14.278 7.63914 -94573.3 -95140 -156715 201948 -83554.5 182119 
228 1 48.171 49.8949 14.2688 7.15433 -458076 -57368.4 -189348 68173 50038.4 23015.5 
145 1 49.5095 48.9895 11.8461 7.52211 -531311 -658105 40189.4 90067 27063.7 -103322 
220 1 49.6001 47.3714 14.2663 7.50668 -287137 -264234 224781 17046.7 -45660.1 -39921.7 
153 1 43.6855 34.0704 16.6567 28.6727 729028 536210 661643 -77164.1 72797.2 -141802 
155 1 46.6533 34.0231 16.6282 12.5803 200017 -199390 -498016 -61854.3 -365157 112708 
157 1 49.5359 33.9988 16.4566 11.5993 323994 139510 175675 152905 -62948.5 214059 
162 1 39.3902 36.5376 16.6643 27.4695 376440 419212 734891 -107471 -131690 -11780.8 
166 1 42.2368 36.5466 16.6106 10.1903 70780.3 -225071 -268472 -50489.3 -22910.2 40959.8 
170 1 45.2298 36.53 16.5746 8.30382 -83654.8 -372115 -370986 161328 -246648 -51422.4 
174 1 48.0914 36.4738 16.5714 7.6665 -329584 -464109 -211544 315085 -32535 -52817.2 
159 1 37.9604 39.0171 16.616 13.2488 38464 177575 110114 -225949 -239785 -80036.6 
161 1 40.843 39.0048 16.6449 7.33787 111399 -353993 -90876.2 300229 -42611.5 100033 
165 1 43.7896 38.9542 16.5965 7.36362 265769 -636358 -599598 111240 -249406 -62417.7 
169 1 46.7523 38.9203 16.5502 7.00768 -325001 -487103 -318531 -151844 -175728 124921 
173 1 49.529 39.1152 16.5189 7.57872 -582197 142323 -183167 57373.2 -103435 35329.9 
176 1 35.1306 44.0733 16.752 11.6712 -197692 -125122 216078 -58017.5 165187 141282 
180 1 36.5604 41.5848 16.7907 12.303 -144084 314720 177792 -115015 26181.4 8290.86 
179 1 38.0022 44.0635 16.7517 7.63985 -295992 100440 -449923 45898 75137.5 198707 
184 1 39.4044 41.4688 16.7385 7.34918 131787 -338821 -482788 32091.5 -146591 62376.7 
183 1 40.8642 43.96 16.7187 7.12658 190937 242275 -360057 32973.4 -14570.8 78591.3 
188 1 42.381 41.443 16.647 7.09871 167793 33624.2 -185781 14952.4 -5748.66 206411 
187 1 43.8182 44.0136 16.7217 7.98918 -30169.8 87051.9 -286220 35949.6 -26431.9 205844 
192 1 45.2347 41.4894 16.6519 7.56054 -439618 140063 -390034 -54581.8 -211110 134876 
191 1 46.6377 44.0513 16.6597 7.56997 -469642 -101997 -369418 198908 -19804.3 100425 
196 1 48.0475 41.5412 16.5992 7.54822 -626601 -235152 -342078 246705 -77085.7 43943.7 
195 1 49.5025 44.0572 16.6272 7.54237 -270040 -548597 -245532 163112 -114753 -45331.1 
202 1 33.6813 46.4817 16.7621 12.9496 -139992 -61521.8 243241 77952.7 185820 207783 
206 1 36.5442 46.5443 16.8422 7.79251 -61977.1 -288642 -97163.9 109366 -23846.9 164173 
210 1 39.4767 46.5833 16.7293 7.74482 -150353 -295769 -197527 211560 -137900 -16417 
214 1 42.3319 46.5303 16.6833 7.70756 -241828 -281580 -369051 269417 114140 -35720.8 
218 1 45.2283 46.5508 16.6364 7.64329 -263101 -490732 -383667 158536 -221467 84357.9 
222 1 48.1415 46.5799 16.6715 7.79829 -425588 -363675 -258726 234477 89965.6 -83581.8 
198 1 32.3066 48.9464 16.7415 27.1775 -93236.4 395889 347675 -10889.1 179357 226053 
201 1 35.1096 48.9934 16.879 8.22467 -123357 -359550 -362580 414447 -140015 112538 
205 1 38.1234 48.9967 16.7919 7.42452 108840 -678183 -336425 329145 -42218.6 78798.2 
209 1 41.0512 49.0029 16.6581 7.51844 -436319 -530652 24186.6 51592.1 34053 199811 
213 1 43.8539 49.0077 16.6454 8.06652 -862381 -470655 -293948 256870 -41912.8 -108574 
217 1 46.6866 48.9985 16.581 7.60941 -569270 -738361 -560535 29783.2 19489.9 167027 
221 1 49.5936 49.031 16.5975 7.92678 -358668 -632700 -196291 -215047 27001.9 -90324.2 
230 1 46.6928 32.4449 18.8744 39.8352 525928 -126711 13211.1 -194501 26876.8 115965 
232 1 49.5177 32.4388 18.8616 30.4001 502939 -360283 456500 182339 38592.2 -20100.7 
239 1 42.2757 34.9645 18.9218 24.4887 418853 -301133 351899 -66169.5 94001.4 81348.7 
229 1 43.6942 34.113 21.2951 25.9858 500403 189811 795647 -116610 193941 7480.97 
243 1 45.1617 34.8689 18.9503 10.7591 505389 137862 80205.6 -37317.9 -59648.1 18113.5 
231 1 46.5804 33.9228 21.2318 11.9528 673830 442661 487094 -119057 -119656 -13969.5 
247 1 48.144 34.8027 18.9006 7.61125 -254826 -612577 -226142 13770.1 -259824 -10742.3 
233 1 49.5017 33.981 21.2691 12.0132 294755 109373 92998.5 4491.93 -228966 25570.7 
234 1 37.9694 37.3667 19.0045 30.0708 519938 510330 651957 5013.05 -39587.2 -18355.6 
236 1 40.8653 37.3748 18.997 10.2192 -854.56 -306612 -232996 240431 107768 32782.4 
238 1 39.425 36.5826 21.3193 25.4422 229833 24716.2 699031 -244901 -138260 74642.6 
240 1 43.7002 37.3817 18.9115 7.99721 -172828 -276415 -28143.5 -294105 -34243.8 120506 
242 1 42.2771 36.5505 21.3517 10.3024 -266907 -449709 -247101 -3122.82 -217611 42076.9 
244 1 46.6159 37.3805 18.9063 7.33551 214379 -65038.6 -269758 -147501 -34176.4 -47739 
246 1 45.1815 36.5234 21.3235 8.06639 62360.9 -56577.5 120663 -212121 365.449 -88214 
248 1 49.5372 37.3628 18.8762 8.09709 -51159 9796.17 234341 73438.6 -93856.7 -119736 
250 1 48.0673 36.4402 21.2722 7.62231 168468 352342 427514 89903.2 -31093.8 -109231 
253 1 36.6063 39.9136 19.0882 19.664 41788.1 227855 156686 -8985.46 -155100 120380 
235 1 37.9992 39.0066 21.3659 12.444 -5788.06 80031.4 467179 -40760.3 -147688 120513 
257 1 39.4259 39.8716 18.9902 7.80999 -248457 -162144 -244212 74641.2 100948 282764 
237 1 40.8615 38.9938 21.3769 7.85783 -284568 -460637 188872 -72328.7 -24099.6 13055.6 
261 1 42.2938 39.9275 19.0342 7.26278 -233672 -281348 -5113.5 244488 -108161 257001 
241 1 43.7054 38.9994 21.332 7.8449 -281215 -230621 52715.1 157039 -28213.8 171529 
265 1 45.1359 39.8325 18.9389 7.79001 -17422.6 19906 -59756.7 -50010.8 -240909 197947 
245 1 46.5757 38.9874 21.2549 7.6991 -51073.5 -247024 -78589.4 -183492 -68964.2 107767 
269 1 48.0588 39.8425 18.9042 7.45953 6886.91 -144763 -281790 -126173 -73634.4 -88858.8 
249 1 49.4674 39.0174 21.296 7.7737 75382.5 87412 -237195 286200 -82013.6 1478.75 
251 1 35.2238 42.4029 19.0897 20.1458 -107458 138310 -9408.49 20120.5 89311.9 -28515.9 
252 1 35.1425 44.0667 21.4853 12.8539 54510.9 96236.7 343030 -223334 -126182 20103.3 
254 1 38.0531 42.4033 19.0825 7.42708 -478191 -250439 -518204 275724 -143165 -123105 
256 1 36.5736 41.5077 21.44 12.7512 15970.9 315934 295984 -148404 -110276 63923.5 
255 1 38.0625 44.0005 21.4267 7.73147 122616 -550829 -19026.2 196724 -154574 -83610.6 
258 1 40.8904 42.3376 19.0183 8.10976 -299720 -380296 -43510.3 98309.1 -82732.8 45817.2 
260 1 39.414 41.5094 21.4079 7.6475 -128149 -125894 -97664.7 174325 -128592 89842.1 
259 1 40.9759 43.9829 21.3774 7.1944 -51490.2 -27977.4 -87063.7 21513.7 -172351 187218 
262 1 43.7705 42.4305 19.0097 7.34481 116138 -131806 -157719 57872.6 -181815 129584 
264 1 42.3175 41.4715 21.4656 8.00166 231334 -247465 105272 248226 1380.47 21472.6 
263 1 43.8247 44.0352 21.365 8.20696 35446.6 258800 11488.9 136100 115476 -138486 
266 1 46.6673 42.4129 18.9517 7.37514 -46926.3 -285358 -520676 69761.3 -45537.8 68436.6 
268 1 45.2295 41.5437 21.3079 8.16412 -110400 212632 176145 169975 -100849 36269.9 
267 1 46.7487 44.0371 21.3237 7.73303 -518440 -158612 -239073 -265300 -16936.3 35931.4 
270 1 49.5685 42.3279 18.9178 7.52676 -450369 -486365 -367624 116492 63634.5 -48561.2 
272 1 48.0536 41.4584 21.2552 7.62652 -76313.3 -315482 -172341 181970 -49597 23191.6 
271 1 49.5284 43.9766 21.2672 7.89667 -365613 -299771 41764.5 266633 -177795 77440.7 
275 1 33.7858 44.9118 19.1341 19.4943 129978 63911.7 -75428.8 -132037 -22964.1 -70870.2 
278 1 33.6856 46.499 21.4615 13.0266 146268 376721 -378382 -34132.8 179737 -165019 
279 1 36.6434 44.8711 19.1096 7.4422 -93148.2 -384859 -406207 128248 24479.8 70666.7 
282 1 36.6269 46.4549 21.4956 7.93052 -63258.8 -208355 -175452 -158224 161432 -69707.4 
283 1 39.5615 44.9402 19.0603 7.10399 -490789 -294160 -398310 151124 -4556.9 -186134 
286 1 39.4667 46.4697 21.4125 7.15759 -301522 -169516 -179933 -50317.9 -144707 -127379 
287 1 42.3332 44.9022 19.0338 7.90854 -486376 -435455 -264951 100648 88069.2 28632.8 
290 1 42.3305 46.5722 21.3572 7.27975 -266990 -156508 -456171 21889.4 -38328.3 144877 
291 1 45.2972 44.9071 19.0195 7.84608 -282237 -394871 -324771 170089 1705.26 -91369.9 
294 1 45.2277 46.5832 21.3544 7.41118 -9376.52 -243980 64489.6 261931 -23199.9 -33830.8 
295 1 48.1231 44.8386 18.9752 7.93361 -478547 -342889 -783360 -97174.3 30127.8 -10957.5 
298 1 48.1436 46.4637 21.3287 7.95177 64977.5 -576956 329721 -192064 43452 -99128.1 
273 1 32.3493 47.428 19.1083 27.4285 -14708.1 202503 435992 -56379.6 -34777.7 124921 
274 1 32.3304 49.1416 21.4609 24.5966 -94505.8 592247 227109 -319084 22737.1 84698.7 
299 1 33.6966 49.8971 19.1287 10.32 -107696 -152291 -470539 100669 263855 175059 
276 1 35.1472 47.3768 19.188 8.20892 -181204 -233583 -292124 -113924 226930 170931 
277 1 35.1373 49.1209 21.4602 7.83142 -192504 467843 47948 -268501 -163366 11904.1 
300 1 36.6246 49.8629 19.1008 7.98156 226471 -174425 -451008 64578.6 -34344.1 -14506 
280 1 38.0764 47.3706 19.1363 7.5445 -13246.1 -291135 -416714 133543 -119947 105206 
281 1 37.9977 48.9898 21.4972 7.37334 -172859 -129827 -143738 149939 22227.6 -27829.8 
301 1 39.6056 49.8414 19.1014 7.49199 296539 -364191 13570.5 114001 -282240 -31422.3 
284 1 40.9858 47.412 19.046 7.1419 -551352 -536158 -308243 382115 -103675 75103.4 
285 1 40.8572 49.0076 21.497 7.01974 39174.4 -180859 -197598 297698 -333564 -122719 
302 1 42.5202 49.9381 19.0083 6.87584 -173506 -684282 -293277 168132 -176554 -53985.5 
288 1 43.8023 47.3479 19.0263 7.79249 -504950 -344194 -515041 2131.36 -49744.5 -114122 
289 1 43.8497 48.9851 21.3197 7.6153 -57010.6 -894260 -510920 206147 -217331 -179045 
292 1 46.7197 47.3867 18.9305 7.86 -298572 -830522 -233937 55513.1 131034 -63997.6 
293 1 46.7631 49.0023 21.3821 7.54287 -627656 -328094 -169460 -77962.5 -33028.5 -187261 
303 1 45.3686 49.8022 18.9565 7.517 -515635 -274083 85789.9 260380 36328.1 -118288 
304 1 48.2174 49.77 18.988 7.16651 -872079 -589245 -89409.2 -89858.3 -10643.5 143466 
296 1 49.6205 47.313 18.9756 7.64965 -275568 -117395 -310063 86419.1 10761.2 -251264 
297 1 49.5622 48.9239 21.3267 7.23086 -398298 -241077 -421700 -68171.7 -93803.4 90280.3 
306 1 46.481 32.4487 23.6497 49.6315 708614 -140328 401834 -20333.3 -22247.9 -23467.5 
308 1 49.364 32.3869 23.5673 40.5338 721095 -109213 253807 211163 34499.1 83598.3 
315 1 42.3356 34.9239 23.6576 26.2163 347117 -327081 299306 -221862 15668.7 37258.6 
319 1 45.2106 34.9042 23.7008 10.1029 -192690 -394883 213478 221001 -114675 140041 
323 1 48.0035 34.7836 23.6779 7.72369 -585977 -306173 -19473.6 34584.6 179862 -44565 
310 1 37.9023 37.4241 23.7524 30.0379 614564 365656 883408 -13192.8 -110593 137215 
312 1 40.8039 37.3232 23.7046 10.0009 310072 72294.2 -258693 22138.5 43146.8 16343.2 
316 1 43.6882 37.3333 23.6523 7.98601 -14830.3 -237514 -32636 -164070 -6094.94 -1235.26 
320 1 46.6229 37.4196 23.6357 7.19545 83569.3 -233626 32713.7 -136653 -146751 -87366.2 
324 1 49.4862 37.3602 23.6318 7.2137 -268953 -410754 -308617 177521 32050.7 51210.8 
329 1 36.5232 39.8949 23.7604 21.6669 224513 303094 488223 -37142.6 -81104.3 206913 
333 1 39.3728 39.8906 23.7911 7.83183 49312.7 -70177.2 -180062 173070 -175160 212540 
337 1 42.314 39.8641 23.7643 8.33972 176353 217262 -356889 47212.5 102555 266978 
341 1 45.1957 39.8726 23.7164 7.93661 -81680.5 -136065 409359 138149 81187.7 81756.6 
345 1 48.0673 39.8573 23.6401 7.78732 -441492 -703569 -102264 9445.03 215107 25378 
327 1 35.1742 42.4245 23.875 19.893 78969.3 -125667 173211 -231528 -81631.5 -128857 
330 1 38.0249 42.357 23.8078 7.87673 -681220 -534165 -211841 201267 -62329.4 -29707.5 
334 1 40.8273 42.4103 23.7513 7.41165 -36549.7 23288.8 -99779.5 72466.6 24013.7 12634.3 
338 1 43.8455 42.3758 23.7679 8.10658 140608 -33295.3 -97081.6 112320 73878.1 -100552 
342 1 46.6874 42.3107 23.6715 7.70849 -557332 -345943 21242.4 12212.1 -89457.6 44721 
346 1 49.5239 42.3104 23.6287 7.90847 -264999 -329243 -36773.3 51107.5 118136 55656.8 
351 1 33.6702 44.8721 23.8092 22.0435 433490 305994 280645 -36365.1 94629.9 -47481.4 
355 1 36.5851 44.8177 23.8468 8.01107 -207138 -349134 -279665 -11866.2 -95023.7 -882.63 
359 1 39.4145 44.8576 23.8421 7.26349 -138441 -692291 -258488 -2785.77 -168907 -152124 
363 1 42.4065 44.881 23.6885 7.9093 235476 -291633 25575.1 133968 -2566.2 -109456 
367 1 45.3185 44.8979 23.741 8.00843 -423591 -201082 117275 -11948.7 -60899.8 9515.61 
371 1 48.1073 44.7975 23.7405 7.74175 -459545 -138237 -148571 175587 -205101 109843 
349 1 32.3726 47.4263 23.7313 25.5171 -172716 -3739.78 149317 30290.8 69450.6 16028.1 
375 1 33.5867 49.9422 23.8362 10.4861 330138 114896 5415.26 -382118 148925 115990 
352 1 35.1719 47.3379 23.7536 8.4371 44764.3 480409 3495.3 -67752.8 37947.2 -67730.4 
356 1 38.1303 47.3921 23.8298 7.15031 -25876.3 -194105 -367716 371887 -194038 82949.5 
376 1 36.6342 49.859 23.8188 7.78572 192440 -322189 -501478 8632.02 183579 -127563 
360 1 40.9563 47.2855 23.8072 7.8332 -487574 -125922 -400635 28004.1 109649 45061.4 
377 1 39.5249 49.9309 23.8138 7.13347 -67094.3 -254150 -346812 2039.96 172294 -42526.5 
364 1 43.8397 47.3354 23.731 7.4508 -309679 -701205 -202550 -52735 22918.5 10746.7 
378 1 42.4306 49.8021 23.6917 7.9218 -401048 -51522.4 -95083.8 -15903.7 -169209 95249.7 
379 1 45.2444 49.7717 23.6684 7.51275 -486066 -185979 -201012 -131253 88957 100071 
148 1 36.5801 49.7461 9.73573 8.50952 526876 24577.5 47742.7 139379 -331290 -86771.6 
149 1 39.4729 49.851 9.61532 7.49963 -170337 -397812 -24702.3 270906 -20561.6 -49634.5 
147 1 33.4602 49.7668 9.7883 7.56429 1.09681e+06 774472 494911 -445317 498600 -76917.9 
305 1 43.7169 34.0727 26.0141 23.5787 476623 281871 832715 -69965.5 -61487.8 127463 
307 1 46.5992 34.0079 25.9927 13.0851 217760 -78360.1 -314109 -127600 -168263 99881 
309 1 49.5422 33.8947 25.9781 9.89916 128636 324407 578411 -166697 128211 -88277.4 
314 1 39.3996 36.5841 26.0391 27.0409 277134 370210 424586 -282861 85422.9 10171 