ITEM: TIMESTEP
70000
ITEM: NUMBER OF ATOMS
5538
ITEM: BOX BOUNDS pp pp pp
0.259222 99.7408
0.0641917 99.9358
-8.2109 108.211
ITEM: ATOMS id type x y z c_csym c_2[1] c_2[2] c_2[3] c_2[4] c_2[5] c_2[6] 
15 1 45.0063 35.0191 4.96689 36.9726 37319 -25366.8 -183097 -198665 -146867 -194303 
19 1 47.8044 34.9925 4.81873 39.9429 443577 -172418 187163 126851 103005 2033.59 
16 1 46.4542 37.3812 5.00703 20.9491 -330798 -623230 -456075 72469.8 11134.3 140076 
20 1 49.3137 37.3747 4.92656 22.2147 -105805 23215.9 37160 46007.6 176427 8174.1 
33 1 42.239 39.97 4.86092 23.7733 -91650.9 -281284 172516 219832 77479.4 -55598.6 
37 1 45.1581 39.9072 4.95901 22.7326 246382 -102583 89813.2 34531.7 32105.7 -108076 
41 1 48.0131 39.8149 5.0037 21.5365 -145515 80308.6 -379624 269086 -28749.6 46750.3 
30 1 40.9027 42.4762 4.92041 23.056 -202555 -71321.5 -15542.5 -131927 -108932 -4913.88 
34 1 43.7411 42.3725 4.91739 22.7546 24465.2 211133 275378 145145 96606 110804 
38 1 46.601 42.3567 4.9012 24.0302 425136 548121 233895 -57785.4 38852 17970.3 
42 1 49.4901 42.3797 4.88796 24.2217 3156.14 453913 161212 86180.2 -29750 -24686.2 
51 1 36.6337 44.9673 5.01559 35.4953 234934 745620 302630 -357181 -38961.6 50614.9 
55 1 39.4192 45.0041 4.94977 22.9688 405327 418748 197247 -106688 -12090.5 -61531.9 
63 1 45.222 44.9386 4.95385 22.8011 71520.4 354172 -451449 69017.9 -169592 -182316 
67 1 48.0852 44.8983 4.90249 23.7212 -32603.9 471852 -69902.8 -34694.7 66883.3 73158.8 
74 1 42.2315 49.9733 4.96311 22.421 578794 294129 -122828 -62102.3 132547 48238.5 
56 1 40.9052 47.4468 4.91982 23.1067 609282 589401 226624 -203144 -108263 -83150.2 
69 1 49.505 49.1316 7.33163 8.06138 -179488 55829.2 288421 -37591.8 -14296.5 21072.3 
60 1 43.6985 47.3936 4.86661 23.769 336995 542031 337408 -121764 -28602.7 -82466.2 
61 1 43.7177 49.0034 7.24122 7.6913 -186492 -67542 -27873.5 -271308 112046 121457 
64 1 46.6245 47.434 5.0015 21.8532 239605 287868 -527147 4349.92 -78341.2 -117134 
72 1 36.4079 49.9631 5.07657 22.3055 269753 438532 -204243 -116308 22334.2 97924.4 
65 1 46.6281 49.0085 7.27875 7.40689 -68676.2 -313620 -612734 301304 -273485 -248663 
68 1 49.453 47.4012 4.93771 23.3535 277556 687618 133199 -105826 -35260.7 154406 
2 1 45.1078 31.8238 7.06442 84.898 -369729 -278907 190384 67407.3 46515.6 -114423 
4 1 47.8488 31.7266 7.12909 39.1889 -95776.1 -10231.1 -25199.5 33919.8 -90628.9 -60971.9 
11 1 42.201 35.04 5.05415 57.8708 608372 400558 146253 -235088 170923 -213500 
1 1 43.6878 34.0986 7.34941 20.1827 -332696 -119100 -24199 -122721 185028 -377558 
3 1 46.4987 34.177 7.18372 6.70153 -1.06586e+06 -928222 -441224 -219848 -133862 38293 
5 1 49.3369 34.1294 7.09685 7.05097 -374410 -569088 276225 104174 61337.4 -163573 
6 1 36.5642 36.8338 7.18387 109.679 142011 391617 291900 -239156 96345.8 198717 
8 1 40.706 37.5271 4.8663 42.7096 485101 484445 351226 -134547 -39343.4 -138300 
10 1 39.3109 36.6593 7.25232 28.1458 193037 235931 442191 -63533.7 -80859.5 -59923.3 
12 1 43.5483 37.5295 5.04715 19.9881 -57427 -360809 -921636 18364.9 36371 447.746 
14 1 42.1604 36.6511 7.25464 10.2262 -377312 -251565 -417696 -175187 382666 -101747 
18 1 45.0231 36.5981 7.263 8.03219 -340998 -411506 -522154 195524 30051.4 -77909.2 
22 1 47.9365 36.5917 7.24795 7.01757 -461915 -791767 -725183 67140.1 -144316 -28687.9 
25 1 35.0851 39.2317 7.29192 39.4552 591072 803171 -27931.5 -536046 -52689.5 25211 
7 1 37.9924 39.1719 7.14726 7.91827 -184716 -184617 128999 -383298 207699 44106.7 
29 1 39.4517 40.0445 4.96384 34.9852 -342894 -233614 -579440 58200.2 70341.1 71424.6 
9 1 40.8099 39.0932 7.20428 7.6321 -596764 -249840 -174250 114743 -360399 -129732 
13 1 43.6725 39.102 7.30231 7.38718 -45444.5 -434128 -215668 37466.3 26649.1 -485163 
17 1 46.6393 39.0698 7.34664 7.16554 -465086 -533125 -542018 87804.2 22470.7 -54961.8 
21 1 49.4546 39.0545 7.28492 7.26719 -720836 -487246 -738859 -28835.3 -48083.6 232724 
47 1 32.4067 44.1403 7.12533 40.1013 -219668 -43048.4 220792 -42784 61182.4 35019.3 
23 1 33.682 41.741 7.2224 39.2897 -16207.7 146308 13094.6 -274788 4606.22 20575.3 
24 1 35.1536 44.0796 7.30986 7.86921 -525094 -100151 16811.1 -231617 -203920 -102324 
26 1 38.0865 42.4908 4.95316 36.9293 17220.5 240769 -76411.3 88904.4 -190204 153555 
28 1 36.4836 41.635 7.17423 8.3717 -112606 -158696 455364 24219.5 -111351 -4250.29 
27 1 38.0047 44.1051 7.3536 7.75896 -884154 -271219 -76040.6 -63651 -251343 -130108 
32 1 39.3544 41.6502 7.25374 7.35588 -394403 -829803 -442847 -167902 -471236 -185491 
31 1 40.776 44.0586 7.31158 7.42193 -278347 -262859 -16935.9 -166992 44986.1 144437 
36 1 42.2742 41.5797 7.23038 8.06482 248226 48284.4 119143 137593 -63391.4 12175.1 
40 1 45.2115 41.5318 7.28215 7.5113 107492 34885.2 26029 17158.5 3162.66 -202491 
44 1 48.0874 41.5411 7.27846 7.80721 -297957 -192269 -22270 -58625.5 -24993.9 -121834 
45 1 30.9186 46.4313 7.59307 105.01 -61328.1 659908 49203.1 -65058.7 148189 -147844 
50 1 33.5881 46.6703 7.2662 8.39601 -272343 311977 264040 -423616 86933.9 -33658.6 
54 1 36.5161 46.6777 7.35126 7.69068 -139145 208983 137832 -117522 -52883.9 -65757.2 
58 1 39.3312 46.6142 7.32107 7.9218 -148136 183451 431679 -72835 -85798.1 -160557 
59 1 42.3932 44.8615 5.01729 19.9257 326366 143837 -1726.8 -128372 -82203 -12729.9 
35 1 43.7795 44.0914 7.34851 7.99615 -10703 -154691 -210439 -401400 -357053 -26604.7 
62 1 42.2165 46.5781 7.30432 7.34884 102450 -187478 161692 44044.4 -98080.3 -108681 
39 1 46.6481 44.108 7.20499 7.9709 -399574 -138683 -165247 10474.5 -228808 82462.7 
66 1 45.1388 46.4885 7.24239 7.69319 -133669 -886643 -370889 -158712 42605.5 -127620 
43 1 49.5338 44.056 7.22887 7.55948 -374780 208699 -316157 -132721 624.017 5649.09 
70 1 48.0295 46.5557 7.26553 7.976 -283118 -361788 -460736 98274.7 30567.7 73755.8 
46 1 32.124 49.1131 7.43258 24.8407 533337 722120 385728 183000 65903.3 150962 
48 1 34.9612 47.5226 5.00084 39.3385 740601 736660 255612 -384449 201589 52331 
49 1 35.0508 49.1339 7.39185 7.59411 -112542 -361962 -311978 139668 -133899 166609 
71 1 33.5752 49.9698 5.15688 44.3867 273759 583851 191184 72917 -138833 32740.4 
52 1 37.8875 47.467 4.94747 23.4435 892044 263434 303061 -209268 57897.1 67455.5 
53 1 37.929 49.177 7.33728 7.19858 34882.8 102698 132440 -119513 -94251.9 -18322.8 
57 1 40.8777 49.088 7.25597 7.74048 60967.7 49133.4 272612 -52267.7 184314 -95796.9 
73 1 39.2931 49.9201 4.87102 23.8992 771889 645840 607324 -193880 77219.2 37457.8 
75 1 45.1357 49.9027 5.0192 21.8879 412538 217015 -557893 -14388.3 102804 -44721.7 
87 1 42.148 34.8774 9.53343 25.2111 454165 80982.9 244356 -77508 300365 -286243 
78 1 46.4053 32.4454 9.44205 20.5326 289605 -504075 185000 -37842.2 16009.9 9872 
91 1 45.0296 34.8351 9.66537 10.497 -291474 -395634 -394185 6341.5 80814.5 -118087 
80 1 49.2776 32.3504 9.42246 18.6561 208892 25661.2 -406206 131861 261343 -287544 
95 1 47.8623 34.8169 9.58232 7.16039 -419186 -652691 -287425 -48595.2 -271066 -161970 
82 1 37.9362 37.4743 9.57032 16.0046 -54827.2 -29298 549190 61004.7 321946 -308668 
84 1 40.7173 37.346 9.66866 10.7359 -292371 -96002.8 171514 89582.3 -78316.4 -178206 
88 1 43.5941 37.335 9.69734 7.90963 -24071.3 -107550 -164470 31219.4 22608.7 -213652 
92 1 46.5119 37.3149 9.61002 7.94989 -285705 -239243 -227442 279081 -60039.5 39927.2 
96 1 49.3465 37.3139 9.53443 7.64197 -334754 -376756 -529879 -23502.9 -66569.3 -111544 
101 1 36.5417 39.9353 9.51654 12.2035 -150716 -276812 24822.1 -270343 -89429.8 -45967.4 
105 1 39.4056 39.917 9.61792 7.61029 -728389 -86848.6 157060 -88335.7 55933.3 40031.7 
109 1 42.1603 39.8407 9.62388 7.71589 -470057 172979 -13169.5 84.3921 -20707.9 -145841 
113 1 45.1096 39.8052 9.66907 7.86776 49466.3 -95094.8 -228839 277954 -82154.1 -145925 
117 1 48.0134 39.8517 9.62633 7.87608 -228237 -80909.1 -586094 189160 -358752 -73719.3 
99 1 34.9535 42.379 9.60533 12.5023 226185 575758 209620 -9671.59 -167802 214074 
102 1 37.8147 42.3696 9.67861 7.40564 63443.3 -323639 -158226 -408645 186552 -41879.7 
106 1 40.7608 42.4222 9.60497 7.93409 456614 -256267 -74244.7 -84901.7 -150747 107564 
110 1 43.7414 42.2901 9.64285 7.8095 237822 219090 -131205 88262.4 100094 -27448.2 
114 1 46.617 42.3653 9.62799 8.18647 75478.5 192119 120338 18549.8 -126890 -355112 
118 1 49.5026 42.3524 9.61146 8.12409 -246533 396761 179038 -28736.2 -141625 -5613.62 
123 1 33.5657 44.9043 9.59731 12.3346 467560 634656 612484 -160213 169190 43483.2 
127 1 36.4406 44.9472 9.65251 7.76091 56023.7 109169 -318229 -39407.9 -41493.4 -92434.8 
131 1 39.3443 44.8784 9.69487 8.09544 6896.1 -12031.4 -352966 14388.1 -60510.3 -44949.3 
135 1 42.2744 44.898 9.68264 8.55729 -124825 -50510.8 -249070 -89920.2 -166527 -14184.5 
139 1 45.1337 44.8992 9.61575 7.81621 -333386 -285411 -651477 -262243 -102089 23038.1 
143 1 48.0386 44.8554 9.59073 7.93648 -260107 -147449 51548 -7273.29 53383.2 -20968.3 
121 1 32.2292 47.5014 9.74784 16.4259 -437287 169608 46749.7 -57846.4 -189610 109558 
124 1 34.9805 47.441 9.69493 7.77168 -542134 -55406.2 82539.9 50343.7 -9252.58 99607.7 
147 1 33.6395 49.9767 9.83528 9.42101 -149261 -798673 34469.5 37906 79015.9 185421 
128 1 37.8751 47.4369 9.70912 7.77777 -120814 -230653 -175165 86740.7 -7746.24 -118443 
225 1 39.3353 49.7595 14.4641 7.2274 -162884 273662 -218230 -134694 -25033.3 -70654.5 
132 1 40.7823 47.3792 9.67623 7.74091 -18659.6 102540 21968.3 50415.1 -152800 -21073.7 
299 1 33.5621 49.8254 19.1775 10.3144 181392 -135808 -253169 34971.7 99112.8 -202583 
136 1 43.6691 47.3611 9.6665 7.88717 -347796 -491863 -406333 -158371 -85830.4 49045.7 
380 1 48.0118 49.7924 23.7746 7.42384 45089 -254676 -399794 -247712 86495.1 38685.6 
140 1 46.584 47.3083 9.57714 7.74554 -425473 -374443 -483104 -94556.1 8644.55 149946 
151 1 45.0944 49.8202 9.64662 7.58136 -678395 93326 -88879.2 -144544 -85958.8 256550 
152 1 47.8945 49.8946 9.6144 6.95523 24400.1 210754 47856.9 -3051.58 96006.8 -187121 
144 1 49.4423 47.4104 9.62902 7.7166 -153427 -57493.5 -401599 56697.2 -53071.9 38787.3 
77 1 43.6773 33.9772 11.8934 23.601 230063 -12489 461482 -352816 234470 98453 
163 1 42.2348 34.812 14.2947 26.2418 344571 179661 468154 -71559.9 -71586.3 79821.3 
79 1 46.5487 33.7915 11.9803 9.82305 25033.4 628831 414264 -304125 66184.3 -84167.7 
154 1 46.3946 32.262 14.3375 42.0547 641033 307278 281467 68067.8 -16946.6 -53635.5 
167 1 45.0496 34.7333 14.29 10.325 -59600.7 -72039.6 -113466 -143118 -8897.41 153837 
81 1 49.3209 33.8935 11.8664 11.2452 -145590 104512 -109964 127347 43365.9 265916 
156 1 49.2003 32.3073 14.1108 37.2811 130644 -381522 126312 330989 46476.4 180914 
171 1 47.9601 34.7097 14.2919 7.96451 -583855 -634432 -398262 538363 -583.024 -153932 
158 1 37.8895 37.443 14.2892 27.8843 455190 70644.6 255448 -208283 173051 -189972 
86 1 39.2546 36.5782 12.0401 25.9064 90059.1 4136.4 269913 -221625 53368.3 -164389 
160 1 40.8353 37.3182 14.2314 9.78936 60387.4 -24807.2 -406370 -36117.5 -31993.4 149637 
90 1 42.1226 36.3226 11.9265 9.36352 148588 133110 -456118 98118.5 186957 50226.6 
164 1 43.6391 37.3139 14.3212 7.72995 -12472.5 336949 93080.2 -312.984 127295 77210.4 
94 1 45.032 36.4228 12.0122 7.99864 168942 12261.6 -472747 -178744 -151948 -155950 
168 1 46.5698 37.1856 14.273 7.90713 -222705 243505 -204913 126400 -73667 44042.2 
98 1 47.9438 36.3838 11.8947 7.43428 82260.5 23486.3 -477167 113844 -76306.9 -280326 
172 1 49.3881 37.3341 14.1806 7.5251 -22063.9 -320123 -334450 224636 160066 -19364.3 
83 1 37.8867 39.0584 11.9006 12.9039 -237254 42661.3 16243.6 -121147 28381.6 -125693 
177 1 36.4215 39.9662 14.1739 19.3722 255982 -212782 109695 79131.7 177374 23850.5 
85 1 40.7174 38.9643 12.0055 7.26897 -198939 -60526.2 -438805 -32777.5 41334.8 191048 
181 1 39.3009 39.8308 14.3234 7.68308 88680.3 -40940.3 -97136.3 -139740 55601.6 13475.3 
89 1 43.5732 38.9285 11.9793 7.67884 315549 187062 -96753.8 186646 53523 -89631.9 
185 1 42.2049 39.8876 14.3736 7.40255 263305 -84362.2 -202225 -64653.3 177342 -26070.9 
93 1 46.5135 38.9441 11.9945 7.92403 163674 199580 40609.6 197721 -114257 32904.3 
189 1 45.1458 39.7968 14.406 8.16121 179703 211173 -21257.3 7522.01 14917.4 110696 
97 1 49.3683 38.9319 11.9109 7.64581 53957.2 -123250 -609578 263615 55468 407205 
193 1 48.0078 39.8303 14.3102 7.6359 81038.9 52278 -142475 336781 -40763.7 23837.3 
100 1 35.0089 44.0859 11.9516 13.3153 77908 19019.1 172705 -52433 58320.1 65276.8 
175 1 35.0365 42.3295 14.219 19.8283 185213 -12240.8 166416 248030 139031 -57958.8 
104 1 36.3635 41.5197 11.8946 12.8593 168395 85504.4 -647518 -9854.8 367222 370466 
178 1 37.9386 42.3846 14.3415 7.63119 -28249 -460168 97321.2 -115091 243590 116540 
108 1 39.3398 41.5213 12.0153 7.82282 173940 -298661 -259857 8554.01 -87372.4 -152077 
182 1 40.802 42.3664 14.2789 7.9238 -43128.7 -457959 -598247 77489 345.105 -161409 
111 1 43.7387 44.0346 11.8917 8.25904 -31870.9 216621 -746439 -110539 -86071 -8364.68 
112 1 42.235 41.5237 11.9431 8.29995 -73850 262826 -108315 151478 106588 -93775.8 
186 1 43.7366 42.3277 14.2713 8.01586 -70914.7 -23102 -8450.16 119937 178435 -176554 
115 1 46.626 43.9585 11.9513 7.69852 343395 265579 -164473 88922.8 68740.6 -162024 
116 1 45.0939 41.4119 12.0216 7.43394 113973 117747 -338560 254977 18309.5 -260469 
190 1 46.5899 42.3129 14.3085 8.13829 -127205 252026 -119389 81220.8 41875 103958 
120 1 48.0468 41.4936 12.011 8.0774 4059.72 110867 -266066 298825 348.85 -6263.75 
194 1 49.4928 42.3966 14.2892 7.6464 121065 205987 -340417 79679.6 -55249.5 25342.8 
126 1 33.5447 46.4822 12.0392 12.5623 175776 74813 240166 156300 -55665.4 231781 
199 1 33.5582 44.8262 14.3106 21.1753 426479 441358 427674 -24127.2 42714.6 218881 
103 1 37.9298 43.9921 11.9765 7.46209 116759 13332.1 -360048 -8646.4 100150 -26715.1 
130 1 36.451 46.5736 12.0158 8.0687 158236 135196 -61252.6 -93898 -9438.72 69991.9 
203 1 36.4607 44.8562 14.3269 7.94812 -28443.5 -47548.1 216924 -27389.8 -50457.6 -13157.9 
107 1 40.7988 44 12.0358 8.32914 27871.3 -137230 -412299 14029 -202803 188922 
134 1 39.3415 46.5317 12.0637 8.0228 82684.1 36055.3 46185.6 67297.7 43671.4 -63937.5 
207 1 39.2971 44.8144 14.4035 7.82698 -272259 -717253 -348678 -77124.6 -123730 51572.6 
138 1 42.2406 46.5823 11.9638 7.53825 -166348 -84244.3 -332768 -160514 59722.9 53651.7 
211 1 42.3205 44.8122 14.265 7.86268 -196084 -97607.1 -142978 32731.6 -127373 -36495.8 
142 1 45.1235 46.579 11.95 7.53611 -432261 -272031 -573736 -40231.9 -143170 126480 
215 1 45.1332 44.8944 14.2186 7.92602 -304850 -164303 -130832 -79752.1 71207.2 60129.9 
119 1 49.5694 44.071 12.0158 7.72254 -399936 -77732.5 -82246.7 -219761 71704.9 115058 
146 1 47.976 46.5556 11.9224 7.72789 -256210 208800 -104938 85297.6 86962.2 120773 
219 1 48.0481 44.8842 14.2931 7.71209 291082 17600.9 -49983.2 47215.6 148097 -102748 
122 1 32.2326 49.015 12.1394 24.884 -152138 540532 318159 -59234.1 -6302.84 -126414 
197 1 32.2027 47.3141 14.4512 27.9191 -143190 254851 549684 35064 -44062.9 38830.7 
125 1 35.0067 49.0556 12.1243 7.79376 -69854.2 293721 10852.3 -7946.55 -251174 79453.8 
200 1 34.9782 47.3537 14.4533 8.102 -39610.3 198585 313838 99067.4 -45773.9 75557 
368 1 46.6221 47.2936 23.7826 7.84018 -78926.5 -283491 -124811 -174008 174328 -80267.1 
224 1 36.4508 49.878 14.4691 8.10317 16577.1 -416294 -264489 175538 -87616.6 22706.6 
129 1 37.9813 49.0444 12.0848 7.40058 -334977 -135432 48631.2 82492 -235847 -140622 
204 1 37.9038 47.2896 14.4298 7.7252 840.784 -253386 -46687 -127869 -24239.2 -65671.5 
133 1 40.756 49.0613 12.0607 7.48193 -404211 135256 310681 94631.3 -15393.8 -64618.3 
379 1 45.1086 49.799 23.7331 7.44201 -427188 -153944 -339313 -109049 -113830 287823 
208 1 40.8176 47.2658 14.4417 7.61295 3271.69 69736.9 -103972 -69423.9 58249.9 53017.3 
137 1 43.6727 48.997 11.9948 7.9227 -111742 -442438 -81086.4 91973.9 -18872.5 25398.1 
372 1 49.4958 47.327 23.7912 7.59281 -91314.6 -2892.48 74376.9 -167333 -36832.8 -63161.9 
212 1 43.7341 47.3509 14.3665 7.62155 -287366 -407061 -162215 236726 -94505.8 -30961 
141 1 46.5423 49.0526 11.9595 7.72724 20972.8 -122037 -267755 46593.5 51027.5 197945 
216 1 46.5646 47.3722 14.2994 8.06772 -267665 -540497 -332964 -42696.1 43240.8 -151603 
378 1 42.3228 49.8165 23.7546 7.8241 -450498 -520669 -274983 -13603.7 -85314.9 160581 
150 1 42.2596 49.893 9.6614 8.06192 -349506 -67151.6 30514.7 -147509 -176449 -97167.9 
145 1 49.5284 49.0038 11.9899 7.896 383828 -101924 -7686 98941.3 19026.8 -200543 
220 1 49.5142 47.3477 14.3781 7.81214 -86802.8 -240019 -410461 -20901 250144 6056.84 
153 1 43.6796 33.9366 16.6152 26.1173 327556 285154 327802 -113236 169630 23915.3 
155 1 46.5524 33.857 16.6129 12.0023 408487 396020 112015 -150437 165783 -154701 
157 1 49.4926 33.8163 16.5389 9.36756 417237 582467 512024 14415.5 -45195.9 340177 
162 1 39.3967 36.5809 16.5944 24.3343 -80794.4 16942.3 577047 -27691.5 166531 -19651.1 
166 1 42.1951 36.3625 16.6741 9.53158 70769.9 241005 -52650.9 15383.6 161736 49959.8 
170 1 45.1191 36.4188 16.6439 8.23815 342723 250032 259638 -82841.7 -49052.2 -143210 
174 1 48.0485 36.3604 16.6021 7.77424 302427 163994 39144.1 -49649.6 -87874.1 -105592 
159 1 37.9271 38.9413 16.7089 12.9199 146814 32632.4 182829 4942.21 351488 -163636 
161 1 40.8476 39.0008 16.6516 8.2003 -264985 34412.5 -207439 -169303 174724 9527.95 
165 1 43.6767 38.9253 16.7294 7.92142 -160408 53444.8 -401324 282434 123406 54235.4 
169 1 46.591 38.8725 16.6712 7.70876 30840.3 158622 -291518 -12187.2 -114251 300228 
173 1 49.4543 38.8732 16.6144 7.14125 25138.3 30550.3 -154234 108882 9346.38 84691.5 
180 1 36.4556 41.4421 16.6083 12.9955 359107 414784 519618 -145311 28843.3 32947.5 
179 1 37.8659 44.0213 16.7398 7.63291 158465 -4193.79 -432044 173549 176448 159706 
184 1 39.3705 41.4563 16.6935 7.83999 456810 22795.5 -179271 33180.5 80865.2 -109816 
188 1 42.3647 41.4589 16.7017 7.48216 100511 -61322.1 -175464 48288.3 73843.8 -234019 
187 1 43.7852 44.0684 16.6251 7.20298 -60655.1 -90290.1 108979 96833.5 -112721 -88288.3 
192 1 45.1849 41.4913 16.6898 8.28727 -278900 592340 -241163 -17598.7 -65781.8 -200881 
191 1 46.6382 44.1172 16.6651 7.26242 -84527 193484 285576 -89167.7 126564 55180.3 
196 1 48.03 41.4791 16.6478 8.07479 5850.71 658794 -279626 49745 1887.91 -137902 
195 1 49.5486 44.0309 16.6872 7.92503 114163 224269 75773.4 -16207.4 -31810.3 -69164.4 
176 1 34.9837 43.9035 16.6622 12.933 288571 565825 674830 -97750.6 144179 -76757.5 
202 1 33.5352 46.4529 16.8196 13.1519 100020 203912 34448.9 90747.8 227956 257284 
206 1 36.4246 46.4454 16.7714 7.55797 232091 -9044.68 -312446 235805 -61567.2 49591.9 
183 1 40.8222 43.9319 16.5886 8.08555 406064 -112828 -195164 -47895.8 -111858 -12408.7 
210 1 39.3996 46.4825 16.7215 7.6408 -111731 -33480.5 -696327 -21360.4 79039 -25732.3 
214 1 42.2659 46.4018 16.7372 7.8708 -252960 -298615 -225522 161073 -199091 95154.5 
218 1 45.1648 46.537 16.6625 7.66006 -531479 -811559 -392317 -27577.2 -108704 -37136.6 
222 1 48.0777 46.5288 16.6447 7.63709 -251470 -421914 -275100 -218322 356898 -114214 
198 1 32.242 48.9405 16.8404 25.2136 -443160 320029 174646 -1139.32 21989.2 143672 
201 1 34.9984 48.9967 16.831 7.8692 -412278 60149.3 -138996 -93260.9 -114284 -94537.2 
205 1 37.9281 48.9581 16.7897 8.11964 203559 106334 -473798 103667 219235 117870 
209 1 40.858 49.0103 16.7614 7.49358 -400997 -59827.9 -766329 -189253 106893 197190 
213 1 43.6882 48.9457 16.729 7.7512 -478039 -313692 -531450 307349 -152015 29566.9 
217 1 46.5633 48.9725 16.6432 7.80483 -271084 -609283 -450984 145622 40708.9 41362.3 
221 1 49.4796 49.0156 16.6471 7.92858 -56035.7 -99590.2 -363667 -128819 -130461 -311075 
239 1 42.4812 34.8409 18.9971 24.2848 -308686 -234941 253920 -90095.2 121146 8230.1 
229 1 43.7912 33.9007 21.4461 27.2889 156309 157634 732794 -245905 -112791 -94592.3 
230 1 46.7873 32.1929 18.965 44.2339 58225.5 375487 715430 -120704 1775.31 9441.43 
243 1 45.1924 34.585 18.993 10.1909 -395302 792965 185046 27809.2 -12379.4 -134610 
231 1 46.6048 33.8265 21.3377 12.1001 -32557.7 311543 484045 -4380.93 -96792.6 159742 
232 1 49.4923 32.3171 18.9378 38.9121 -43028.3 -107649 300924 189592 -21164.6 27437.8 
247 1 48.0537 34.6833 18.9673 8.25322 2381.38 -358831 27077 56853.1 -96381.5 -64498.5 
233 1 49.4568 33.8559 21.3361 11.9277 775417 655858 861402 152281 23382.5 -69728 
234 1 38.0681 37.2702 18.9744 27.5065 246337 462616 366307 -62406.5 111400 79564.6 
236 1 40.8916 37.2499 19.0169 9.7532 146082 133504 461686 -12217.4 87735.8 -270673 
238 1 39.3318 36.5485 21.4559 27.5106 543620 -201940 632181 62330.4 107567 -128813 
240 1 43.7411 37.3135 19.0324 7.46135 -193434 -336889 -210703 -354108 -5087.63 164411 
242 1 42.388 36.3529 21.4151 8.85976 429092 188992 154744 -179278 152568 -21748.4 
244 1 46.6158 37.2737 18.9518 7.57386 130235 144648 -640302 150520 -113574 183287 
246 1 45.2153 36.3363 21.2852 7.54244 -344473 88307.4 121078 21768.7 5599.37 252372 
248 1 49.5473 37.2039 18.954 7.59421 -491236 -112308 -470098 260840 81115.4 115066 
250 1 48.0351 36.3763 21.2342 8.171 -225917 211034 79073.7 200204 -14060.4 -32192.5 
253 1 36.5887 39.8277 18.9819 19.668 184567 407995 169163 -129159 113222 -13840.9 
235 1 38.0275 38.9764 21.3052 13.6099 -164207 -53260.3 708836 45613.4 56357.5 240992 
257 1 39.4624 39.7988 19.0109 7.40184 -383465 307613 -286852 53603.9 144467 172823 
237 1 40.8561 38.8895 21.3687 7.0565 183132 173073 -33928.8 -260488 -5246.94 308341 
261 1 42.2583 39.789 19.0128 7.72666 -349254 28059.9 -213200 66739.7 187186 -26124.8 
241 1 43.7904 38.8923 21.3944 7.74518 506972 332309 42908.9 -216895 -58488.4 -80147.6 
265 1 45.1784 39.7636 19.0196 8.14689 -6228.76 17023.5 -65466.1 -64596.4 -78099.3 52916.9 
245 1 46.6988 38.9036 21.2721 7.88192 -159053 267130 -176070 81294.7 25025.2 146464 
269 1 48.0732 39.785 18.9859 8.01608 -435471 115847 -300319 -174306 58834.6 191320 
249 1 49.5034 38.956 21.3012 7.93396 -285031 14894.6 -141617 171765 98463.2 146510 
251 1 35.1369 42.2964 19.0976 26.603 64527.6 65378.9 392172 -116318 -84994.7 -107818 
252 1 35.045 43.949 21.3926 12.9004 -95902.9 -68355.8 -391.203 -227649 151662 -93542.1 
254 1 37.9636 42.3107 18.9587 7.91216 22557.9 -131827 -76443.2 46899.2 81626.7 59075.8 
256 1 36.5132 41.4154 21.449 13.007 23179.8 201422 313318 -193403 -265534 189901 
255 1 37.934 43.9039 21.4151 8.09292 90357.1 -492877 83149.6 454841 -218726 152467 
258 1 40.9068 42.3507 18.9897 7.62373 -69376.4 -242124 164000 140916 25498.3 -8370.11 
260 1 39.358 41.5195 21.3687 7.68258 -43219.3 58723.7 585259 133356 29030.1 -116563 
259 1 40.857 43.9877 21.4422 7.98399 53474.7 -16196.4 -44442.3 -70143.4 6663.78 -5076.49 
262 1 43.7558 42.3343 19.051 7.84723 -292814 -229783 132843 -70838.1 -53718.8 -273297 
264 1 42.2371 41.4433 21.4132 7.3088 268741 311222 150235 -56914 -25552 -46844.4 
263 1 43.7705 43.9051 21.4357 7.48691 -34716.2 -293696 -686607 164534 -93510.7 196008 
266 1 46.6265 42.3107 18.961 8.21668 -223495 91777.2 160376 76044 -96107.5 -210039 
268 1 45.1727 41.4345 21.4402 8.05769 351289 18056.8 -78414.7 114781 -93691.7 68915.5 
267 1 46.6499 43.9616 21.4266 8.29721 18912.2 9243.1 -124410 9233.26 186182 48035.9 
270 1 49.4894 42.2778 18.9802 7.88502 -483639 -216853 48209.2 38667.1 71633.8 53644 
272 1 48.1096 41.4988 21.3715 7.78388 65494.7 130033 145841 59612.1 94456.8 -98013.3 
271 1 49.5905 43.9538 21.4248 7.5055 -133061 -339810 -249245 -217453 -11751.3 234918 
275 1 33.7014 44.7765 19.0312 18.812 -307362 166491 -97421.2 74927.3 -46352.1 240470 
278 1 33.6504 46.4319 21.4398 12.484 -310806 -350452 -366547 -8032.26 -200219 376227 
279 1 36.4677 44.7814 19.077 7.81848 -424199 -660552 -583540 46332.9 283994 -56233.7 
282 1 36.517 46.3422 21.416 6.96748 -190617 -491143 -556697 91060.8 -226422 -67380.7 
283 1 39.4525 44.7761 19.0422 7.75409 285475 -104153 247248 90979 -150903 4893.05 
286 1 39.4271 46.5019 21.3713 7.92167 66592.9 -74291.6 -182457 45571.7 -37573 23969.7 
287 1 42.3433 44.7957 19.0599 7.55719 -342777 -450872 3057.91 -111783 73324.2 90417.5 
290 1 42.3756 46.4155 21.3836 7.45711 -30888.8 -286281 -620834 -339164 -87093.3 -39765.3 
291 1 45.1503 44.754 19.0536 7.23708 -433597 -408057 -28107.3 -139074 33239.3 -194448 
294 1 45.2282 46.5144 21.2947 7.78529 -516556 -294020 -153370 15314.6 16755.5 -25359.8 
295 1 48.0839 44.7945 19.0634 7.80339 -28617.8 -340129 10676.5 -33601 9065.36 -241181 
298 1 48.0928 46.4337 21.3717 7.77316 -244759 -518510 -333219 -15921.6 197704 94230.4 
273 1 32.3212 47.3083 19.1547 25.8102 -139232 -132371 -445036 64996.1 7987.32 -102634 
274 1 32.2504 48.8554 21.4787 26.9645 37657.5 159289 -215239 60869.8 18332.8 33090.1 
148 1 36.5196 49.8629 9.72687 7.56465 -178466 -210575 117607 171364 -17123.5 -191273 
276 1 35.1495 47.2837 19.1773 7.2892 -776877 -318688 -508762 43390.2 101748 39228.5 
277 1 35.1036 48.9016 21.5063 7.91846 -312990 -321455 -571579 -277517 -6467.67 -29921.5 
280 1 37.934 47.2664 19.056 8.0861 -732121 -167762 -502002 85287.3 -60462.7 58897.2 
281 1 37.9317 48.9172 21.3964 7.82842 -438814 -412290 -685767 336498 -52798.6 225792 
300 1 36.5303 49.7575 19.127 7.55317 -73866.6 -397679 -722147 -102985 -162933 56186.9 
301 1 39.4083 49.8101 19.1273 8.36664 -159676 -78292 -370445 129254 35424.7 68455.9 
284 1 40.8065 47.3315 19.0474 7.79578 18182 -135866 -304326 -122104 125349 47927.9 
285 1 40.8425 48.9627 21.4478 8.28961 13486.6 -243952 -352769 -90828.9 -61849.1 76501.1 
302 1 42.2991 49.8093 19.0751 8.01479 -101167 20931.9 -9816.78 -7977.33 -54074.7 24935.5 
288 1 43.7431 47.2754 19.0149 7.94055 -174671 -393126 -665151 -151125 -84272.1 146163 
289 1 43.7643 48.9183 21.4096 7.57831 7310.32 -422423 -659286 -122214 -3920.11 164884 
303 1 45.1829 49.7418 19.056 7.99052 -66648.1 275166 -15946.7 -60343.6 39058.4 108885 
292 1 46.6441 47.2491 18.96 7.29765 -428989 -484.151 -531304 137501 139217 -18337.8 
293 1 46.6948 48.8865 21.3614 7.4818 -511527 -478995 139132 -269983 -120444 95574.5 
304 1 48.0645 49.8385 19.0244 7.59982 -4159.07 444696 135005 87160.7 99543.3 181849 
296 1 49.4809 47.2674 19.1065 7.98466 -263017 -57760.9 -60326.1 -263314 106487 -15767.2 
297 1 49.4622 48.9733 21.3825 7.95573 -391202 62478 180378 -169262 -10041.6 -73620.3 
315 1 42.362 34.8949 23.8321 24.0763 167215 -348051 -9304.74 -173328 -115851 -121237 
306 1 46.5722 32.3087 23.7253 53.3432 1e+06 603837 634351 -77088.8 33075 64298 
319 1 45.1738 34.8248 23.6979 9.41111 -65372.9 -273525 99190.4 -52411.2 -93386.1 -12132.7 
308 1 49.4521 32.3325 23.8243 36.261 627563 -50983.3 254848 179072 26517.4 -258502 
323 1 48.0595 34.7341 23.7114 7.94813 272399 -88791.4 252161 225407 76047.1 -231109 
310 1 38.0705 37.4161 23.7645 26.5263 254621 -70384.8 43725.2 -58105.4 124188 -284012 
312 1 40.9641 37.3735 23.7103 8.56771 196244 -605354 -75070.5 130545 -63848.3 49848.7 
316 1 43.834 37.2742 23.7691 7.74284 -434426 -425437 99087.4 -4234.21 -141162 66647.6 
320 1 46.6555 37.2787 23.6878 7.64158 -139539 -58484.6 303687 -79431.8 28346.1 -85871.9 
324 1 49.5537 37.2615 23.6486 7.88927 153905 -277010 -124107 281711 254308 -154496 
329 1 36.5767 39.8772 23.7692 19.8325 360671 -59928.9 32045.2 -178699 -252102 336140 
333 1 39.5034 39.8129 23.8236 7.26945 -78688.7 -99752.9 444479 -70595.9 -14143.9 54858.9 
337 1 42.3192 39.8404 23.808 7.5768 -291374 -380242 -181384 -30997.4 -274911 54334.7 
341 1 45.2237 39.796 23.7094 7.93099 191982 -196422 -197424 -207711 -263007 249388 
345 1 48.1676 39.7146 23.7091 7.76482 61214.3 113127 -8095.47 221674 47985.9 157721 
327 1 35.0968 42.3437 23.8337 19.5491 -65349.9 -153772 260702 -161069 -128185 -47604.3 
330 1 37.9252 42.3254 23.7485 7.83463 30991.2 -344695 -51164.2 -338039 -14751.7 43589.1 
334 1 40.8947 42.3122 23.7956 7.41699 -45801.8 -137166 -37220.4 219145 -111325 181035 
338 1 43.7236 42.3564 23.7135 7.61658 -107762 -220278 -583728 -172256 69362.7 106510 
342 1 46.6551 42.2432 23.7381 7.81359 -59977 214629 -134689 -155264 -63216.2 35264.5 
346 1 49.502 42.3678 23.7212 7.38736 -57344.2 -164044 -428951 -193917 -36025 109615 
351 1 33.683 44.842 23.7242 19.8453 -478242 13262 121560 -219358 25521.1 196395 
355 1 36.4185 44.7834 23.8641 7.6178 -637819 -420806 -32230 -22217.6 -26403.3 183802 
359 1 39.361 44.7706 23.7356 7.77348 178869 205218 62777.7 -193628 99070.1 9134.4 
363 1 42.2788 44.8907 23.748 7.38103 141689 -508566 -194680 25519.4 -115455 48796.4 
367 1 45.2131 44.7963 23.6988 8.12574 48695.2 -2274.91 -139819 -176633 -10363.3 -430254 
371 1 48.1015 44.8383 23.7512 7.92611 52330.7 -193017 26598.5 176689 -56323.9 -20180.3 
349 1 32.2813 47.4093 23.8348 26.8515 -104179 -185744 131860 -235401 -78055.9 183429 
352 1 35.0742 47.2667 23.7642 8.07371 -675746 -461026 -272467 -154451 -21229.2 342480 
375 1 33.6056 49.8231 23.7858 10.5139 -258593 -808630 -400774 -143886 94896.1 31835.9 
356 1 37.9123 47.349 23.7319 7.49264 -104133 -134523 -70503.4 109548 5330.16 169413 
376 1 36.5195 49.7693 23.7885 7.68384 -224573 -363561 -498999 300703 -137231 85179.8 
377 1 39.3816 49.8145 23.75 7.88856 58792.8 11915.9 -249855 -118501 88231.7 220251 
360 1 40.8308 47.291 23.7286 8.06546 12198.4 -89600.6 -44161.7 162893 54825.8 203346 
364 1 43.7186 47.3129 23.6715 7.40516 -96642.6 -600107 -396854 -278409 -234578 71710.1 
223 1 33.5411 49.8308 14.5249 10.7373 -109379 -169425 -124227 271780 -1425.08 -11054.1 
227 1 45.1781 49.8406 14.35 8.05339 -176281 -289989 -187663 121874 -123575 18478.6 
226 1 42.225 49.7874 14.4699 7.69295 84072.9 107634 -291154 89062.1 3423.36 -38859.9 
228 1 48.0163 49.8414 14.3427 8.25254 -258177 51206.3 -77070.7 -66934.4 -15530.7 123191 
149 1 39.4155 49.9353 9.67108 7.83207 -63465.4 75490.3 166789 39125.8 -171798 104994 
305 1 43.8108 34.0494 26.1319 21.8245 -126901 -40492.3 368695 -134615 -282001 32732 
307 1 46.6146 33.9302 26.084 13.9015 271936 305673 661019 -148069 18257.7 153182 
309 1 49.5437 33.8634 26.1108 11.8401 536028 154756 305251 50979.7 258169 -135785 
314 1 39.4059 36.4603 26.0615 28.3779 497744 296832 913985 -330706 -58373.1 31683.6 
318 1 42.2787 36.4092 26.0963 9.92476 327423 -179885 -86985.1 164062 39077 -341979 
322 1 45.2344 36.458 26.1134 7.89671 150633 -117734 -120915 -277616 -189919 31741.2 