ITEM: TIMESTEP
0
ITEM: NUMBER OF ATOMS
5538
ITEM: BOX BOUNDS pp pp pp
0 100
0 100
0 100
ITEM: ATOMS id type x y z 
1 1 43.2 32.3316 2.61279 
2 1 46.4 30.4841 0 
3 1 46.4 32.3316 2.61279 
4 1 49.6 30.4841 0 
5 1 49.6 32.3316 2.61279 
10 1 38.4 35.1029 2.61279 
11 1 41.6 33.2554 0 
14 1 41.6 35.1029 2.61279 
15 1 44.8 33.2554 0 
18 1 44.8 35.1029 2.61279 
19 1 48 33.2554 0 
22 1 48 35.1029 2.61279 
6 1 36.8 36.0267 0 
7 1 36.8 37.8742 2.61279 
8 1 40 36.0267 0 
9 1 40 37.8742 2.61279 
12 1 43.2 36.0267 0 
13 1 43.2 37.8742 2.61279 
16 1 46.4 36.0267 0 
17 1 46.4 37.8742 2.61279 
20 1 49.6 36.0267 0 
21 1 49.6 37.8742 2.61279 
25 1 35.2 38.7979 0 
28 1 35.2 40.6455 2.61279 
29 1 38.4 38.7979 0 
32 1 38.4 40.6455 2.61279 
33 1 41.6 38.7979 0 
36 1 41.6 40.6455 2.61279 
37 1 44.8 38.7979 0 
40 1 44.8 40.6455 2.61279 
41 1 48 38.7979 0 
44 1 48 40.6455 2.61279 
23 1 33.6 41.5692 0 
24 1 33.6 43.4167 2.61279 
26 1 36.8 41.5692 0 
27 1 36.8 43.4167 2.61279 
30 1 40 41.5692 0 
31 1 40 43.4167 2.61279 
34 1 43.2 41.5692 0 
35 1 43.2 43.4167 2.61279 
38 1 46.4 41.5692 0 
39 1 46.4 43.4167 2.61279 
42 1 49.6 41.5692 0 
43 1 49.6 43.4167 2.61279 
47 1 32 44.3405 0 
50 1 32 46.188 2.61279 
51 1 35.2 44.3405 0 
54 1 35.2 46.188 2.61279 
55 1 38.4 44.3405 0 
58 1 38.4 46.188 2.61279 
59 1 41.6 44.3405 0 
62 1 41.6 46.188 2.61279 
63 1 44.8 44.3405 0 
66 1 44.8 46.188 2.61279 
67 1 48 44.3405 0 
70 1 48 46.188 2.61279 
45 1 30.4 47.1118 0 
46 1 30.4 48.9593 2.61279 
71 1 32 49.8831 0 
48 1 33.6 47.1118 0 
49 1 33.6 48.9593 2.61279 
72 1 35.2 49.8831 0 
52 1 36.8 47.1118 0 
53 1 36.8 48.9593 2.61279 
56 1 40 47.1118 0 
57 1 40 48.9593 2.61279 
73 1 38.4 49.8831 0 
60 1 43.2 47.1118 0 
61 1 43.2 48.9593 2.61279 
74 1 41.6 49.8831 0 
64 1 46.4 47.1118 0 
65 1 46.4 48.9593 2.61279 
75 1 44.8 49.8831 0 
68 1 49.6 47.1118 0 
69 1 49.6 48.9593 2.61279 
76 1 48 49.8831 0 
78 1 46.4 30.4841 5.22558 
80 1 49.6 30.4841 5.22558 
87 1 41.6 33.2554 5.22558 
91 1 44.8 33.2554 5.22558 
95 1 48 33.2554 5.22558 
82 1 36.8 36.0267 5.22558 
84 1 40 36.0267 5.22558 
88 1 43.2 36.0267 5.22558 
92 1 46.4 36.0267 5.22558 
96 1 49.6 36.0267 5.22558 
101 1 35.2 38.7979 5.22558 
105 1 38.4 38.7979 5.22558 
109 1 41.6 38.7979 5.22558 
113 1 44.8 38.7979 5.22558 
117 1 48 38.7979 5.22558 
99 1 33.6 41.5692 5.22558 
102 1 36.8 41.5692 5.22558 
106 1 40 41.5692 5.22558 
110 1 43.2 41.5692 5.22558 
114 1 46.4 41.5692 5.22558 
118 1 49.6 41.5692 5.22558 
123 1 32 44.3405 5.22558 
127 1 35.2 44.3405 5.22558 
131 1 38.4 44.3405 5.22558 
135 1 41.6 44.3405 5.22558 
139 1 44.8 44.3405 5.22558 
143 1 48 44.3405 5.22558 
121 1 30.4 47.1118 5.22558 
147 1 32 49.8831 5.22558 
124 1 33.6 47.1118 5.22558 
148 1 35.2 49.8831 5.22558 
128 1 36.8 47.1118 5.22558 
132 1 40 47.1118 5.22558 
149 1 38.4 49.8831 5.22558 
136 1 43.2 47.1118 5.22558 
150 1 41.6 49.8831 5.22558 
140 1 46.4 47.1118 5.22558 
151 1 44.8 49.8831 5.22558 
144 1 49.6 47.1118 5.22558 
152 1 48 49.8831 5.22558 
77 1 43.2 32.3316 7.83837 
79 1 46.4 32.3316 7.83837 
154 1 46.4 30.4841 10.4512 
81 1 49.6 32.3316 7.83837 
156 1 49.6 30.4841 10.4512 
86 1 38.4 35.1029 7.83837 
90 1 41.6 35.1029 7.83837 
163 1 41.6 33.2554 10.4512 
94 1 44.8 35.1029 7.83837 
167 1 44.8 33.2554 10.4512 
98 1 48 35.1029 7.83837 
171 1 48 33.2554 10.4512 
83 1 36.8 37.8742 7.83837 
158 1 36.8 36.0267 10.4512 
85 1 40 37.8742 7.83837 
160 1 40 36.0267 10.4512 
89 1 43.2 37.8742 7.83837 
164 1 43.2 36.0267 10.4512 
93 1 46.4 37.8742 7.83837 
168 1 46.4 36.0267 10.4512 
97 1 49.6 37.8742 7.83837 
172 1 49.6 36.0267 10.4512 
104 1 35.2 40.6455 7.83837 
177 1 35.2 38.7979 10.4512 
108 1 38.4 40.6455 7.83837 
181 1 38.4 38.7979 10.4512 
112 1 41.6 40.6455 7.83837 
185 1 41.6 38.7979 10.4512 
116 1 44.8 40.6455 7.83837 
189 1 44.8 38.7979 10.4512 
120 1 48 40.6455 7.83837 
193 1 48 38.7979 10.4512 
100 1 33.6 43.4167 7.83837 
175 1 33.6 41.5692 10.4512 
103 1 36.8 43.4167 7.83837 
178 1 36.8 41.5692 10.4512 
107 1 40 43.4167 7.83837 
182 1 40 41.5692 10.4512 
111 1 43.2 43.4167 7.83837 
186 1 43.2 41.5692 10.4512 
115 1 46.4 43.4167 7.83837 
190 1 46.4 41.5692 10.4512 
119 1 49.6 43.4167 7.83837 
194 1 49.6 41.5692 10.4512 
126 1 32 46.188 7.83837 
199 1 32 44.3405 10.4512 
130 1 35.2 46.188 7.83837 
203 1 35.2 44.3405 10.4512 
134 1 38.4 46.188 7.83837 
207 1 38.4 44.3405 10.4512 
138 1 41.6 46.188 7.83837 
211 1 41.6 44.3405 10.4512 
142 1 44.8 46.188 7.83837 
215 1 44.8 44.3405 10.4512 
146 1 48 46.188 7.83837 
219 1 48 44.3405 10.4512 
122 1 30.4 48.9593 7.83837 
197 1 30.4 47.1118 10.4512 
223 1 32 49.8831 10.4512 
125 1 33.6 48.9593 7.83837 
200 1 33.6 47.1118 10.4512 
224 1 35.2 49.8831 10.4512 
129 1 36.8 48.9593 7.83837 
204 1 36.8 47.1118 10.4512 
133 1 40 48.9593 7.83837 
208 1 40 47.1118 10.4512 
225 1 38.4 49.8831 10.4512 
137 1 43.2 48.9593 7.83837 
212 1 43.2 47.1118 10.4512 
226 1 41.6 49.8831 10.4512 
141 1 46.4 48.9593 7.83837 
216 1 46.4 47.1118 10.4512 
227 1 44.8 49.8831 10.4512 
145 1 49.6 48.9593 7.83837 
220 1 49.6 47.1118 10.4512 
228 1 48 49.8831 10.4512 
153 1 43.2 32.3316 13.0639 
155 1 46.4 32.3316 13.0639 
157 1 49.6 32.3316 13.0639 
162 1 38.4 35.1029 13.0639 
166 1 41.6 35.1029 13.0639 
170 1 44.8 35.1029 13.0639 
174 1 48 35.1029 13.0639 
159 1 36.8 37.8742 13.0639 
161 1 40 37.8742 13.0639 
165 1 43.2 37.8742 13.0639 
169 1 46.4 37.8742 13.0639 
173 1 49.6 37.8742 13.0639 
180 1 35.2 40.6455 13.0639 
184 1 38.4 40.6455 13.0639 
188 1 41.6 40.6455 13.0639 
192 1 44.8 40.6455 13.0639 
196 1 48 40.6455 13.0639 
176 1 33.6 43.4167 13.0639 
179 1 36.8 43.4167 13.0639 
183 1 40 43.4167 13.0639 
187 1 43.2 43.4167 13.0639 
191 1 46.4 43.4167 13.0639 
195 1 49.6 43.4167 13.0639 
202 1 32 46.188 13.0639 
206 1 35.2 46.188 13.0639 
210 1 38.4 46.188 13.0639 
214 1 41.6 46.188 13.0639 
218 1 44.8 46.188 13.0639 
222 1 48 46.188 13.0639 
198 1 30.4 48.9593 13.0639 
201 1 33.6 48.9593 13.0639 
205 1 36.8 48.9593 13.0639 
209 1 40 48.9593 13.0639 
213 1 43.2 48.9593 13.0639 
217 1 46.4 48.9593 13.0639 
221 1 49.6 48.9593 13.0639 
230 1 46.4 30.4841 15.6767 
232 1 49.6 30.4841 15.6767 
239 1 41.6 33.2554 15.6767 
243 1 44.8 33.2554 15.6767 
247 1 48 33.2554 15.6767 
234 1 36.8 36.0267 15.6767 
236 1 40 36.0267 15.6767 
240 1 43.2 36.0267 15.6767 
244 1 46.4 36.0267 15.6767 
248 1 49.6 36.0267 15.6767 
253 1 35.2 38.7979 15.6767 
257 1 38.4 38.7979 15.6767 
261 1 41.6 38.7979 15.6767 
265 1 44.8 38.7979 15.6767 
269 1 48 38.7979 15.6767 
251 1 33.6 41.5692 15.6767 
254 1 36.8 41.5692 15.6767 
258 1 40 41.5692 15.6767 
262 1 43.2 41.5692 15.6767 
266 1 46.4 41.5692 15.6767 
270 1 49.6 41.5692 15.6767 
275 1 32 44.3405 15.6767 
279 1 35.2 44.3405 15.6767 
283 1 38.4 44.3405 15.6767 
287 1 41.6 44.3405 15.6767 
291 1 44.8 44.3405 15.6767 
295 1 48 44.3405 15.6767 
273 1 30.4 47.1118 15.6767 
299 1 32 49.8831 15.6767 
276 1 33.6 47.1118 15.6767 
300 1 35.2 49.8831 15.6767 
280 1 36.8 47.1118 15.6767 
284 1 40 47.1118 15.6767 
301 1 38.4 49.8831 15.6767 
288 1 43.2 47.1118 15.6767 
302 1 41.6 49.8831 15.6767 
292 1 46.4 47.1118 15.6767 
303 1 44.8 49.8831 15.6767 
296 1 49.6 47.1118 15.6767 
304 1 48 49.8831 15.6767 
229 1 43.2 32.3316 18.2895 
231 1 46.4 32.3316 18.2895 
306 1 46.4 30.4841 20.9023 
233 1 49.6 32.3316 18.2895 
308 1 49.6 30.4841 20.9023 
238 1 38.4 35.1029 18.2895 
242 1 41.6 35.1029 18.2895 
315 1 41.6 33.2554 20.9023 
246 1 44.8 35.1029 18.2895 
319 1 44.8 33.2554 20.9023 
250 1 48 35.1029 18.2895 
323 1 48 33.2554 20.9023 
235 1 36.8 37.8742 18.2895 
310 1 36.8 36.0267 20.9023 
237 1 40 37.8742 18.2895 
312 1 40 36.0267 20.9023 
241 1 43.2 37.8742 18.2895 
316 1 43.2 36.0267 20.9023 
245 1 46.4 37.8742 18.2895 
320 1 46.4 36.0267 20.9023 
249 1 49.6 37.8742 18.2895 
324 1 49.6 36.0267 20.9023 
256 1 35.2 40.6455 18.2895 
329 1 35.2 38.7979 20.9023 
260 1 38.4 40.6455 18.2895 
333 1 38.4 38.7979 20.9023 
264 1 41.6 40.6455 18.2895 
337 1 41.6 38.7979 20.9023 
268 1 44.8 40.6455 18.2895 
341 1 44.8 38.7979 20.9023 
272 1 48 40.6455 18.2895 
345 1 48 38.7979 20.9023 
252 1 33.6 43.4167 18.2895 
327 1 33.6 41.5692 20.9023 
255 1 36.8 43.4167 18.2895 
330 1 36.8 41.5692 20.9023 
259 1 40 43.4167 18.2895 
334 1 40 41.5692 20.9023 
263 1 43.2 43.4167 18.2895 
338 1 43.2 41.5692 20.9023 
267 1 46.4 43.4167 18.2895 
342 1 46.4 41.5692 20.9023 
271 1 49.6 43.4167 18.2895 
346 1 49.6 41.5692 20.9023 
278 1 32 46.188 18.2895 
351 1 32 44.3405 20.9023 
282 1 35.2 46.188 18.2895 
355 1 35.2 44.3405 20.9023 
286 1 38.4 46.188 18.2895 
359 1 38.4 44.3405 20.9023 
290 1 41.6 46.188 18.2895 
363 1 41.6 44.3405 20.9023 
294 1 44.8 46.188 18.2895 
367 1 44.8 44.3405 20.9023 
298 1 48 46.188 18.2895 
371 1 48 44.3405 20.9023 
274 1 30.4 48.9593 18.2895 
349 1 30.4 47.1118 20.9023 
375 1 32 49.8831 20.9023 
277 1 33.6 48.9593 18.2895 
352 1 33.6 47.1118 20.9023 
376 1 35.2 49.8831 20.9023 
281 1 36.8 48.9593 18.2895 
356 1 36.8 47.1118 20.9023 
285 1 40 48.9593 18.2895 
360 1 40 47.1118 20.9023 
377 1 38.4 49.8831 20.9023 
289 1 43.2 48.9593 18.2895 
364 1 43.2 47.1118 20.9023 
378 1 41.6 49.8831 20.9023 
293 1 46.4 48.9593 18.2895 
368 1 46.4 47.1118 20.9023 
379 1 44.8 49.8831 20.9023 
297 1 49.6 48.9593 18.2895 
372 1 49.6 47.1118 20.9023 
380 1 48 49.8831 20.9023 
305 1 43.2 32.3316 23.5151 
307 1 46.4 32.3316 23.5151 
309 1 49.6 32.3316 23.5151 
314 1 38.4 35.1029 23.5151 
318 1 41.6 35.1029 23.5151 
322 1 44.8 35.1029 23.5151 
326 1 48 35.1029 23.5151 
311 1 36.8 37.8742 23.5151 
313 1 40 37.8742 23.5151 
317 1 43.2 37.8742 23.5151 
321 1 46.4 37.8742 23.5151 
325 1 49.6 37.8742 23.5151 
332 1 35.2 40.6455 23.5151 
336 1 38.4 40.6455 23.5151 
340 1 41.6 40.6455 23.5151 
344 1 44.8 40.6455 23.5151 
348 1 48 40.6455 23.5151 
328 1 33.6 43.4167 23.5151 
331 1 36.8 43.4167 23.5151 
335 1 40 43.4167 23.5151 
339 1 43.2 43.4167 23.5151 
343 1 46.4 43.4167 23.5151 
347 1 49.6 43.4167 23.5151 
354 1 32 46.188 23.5151 
358 1 35.2 46.188 23.5151 
362 1 38.4 46.188 23.5151 
366 1 41.6 46.188 23.5151 
370 1 44.8 46.188 23.5151 
374 1 48 46.188 23.5151 
350 1 30.4 48.9593 23.5151 
353 1 33.6 48.9593 23.5151 
357 1 36.8 48.9593 23.5151 
361 1 40 48.9593 23.5151 
365 1 43.2 48.9593 23.5151 
369 1 46.4 48.9593 23.5151 
373 1 49.6 48.9593 23.5151 
381 1 46.4 30.4841 26.1279 
382 1 49.6 30.4841 26.1279 
385 1 41.6 33.2554 26.1279 
387 1 44.8 33.2554 26.1279 
389 1 48 33.2554 26.1279 
383 1 36.8 36.0267 26.1279 
384 1 40 36.0267 26.1279 
386 1 43.2 36.0267 26.1279 
388 1 46.4 36.0267 26.1279 
390 1 49.6 36.0267 26.1279 
392 1 35.2 38.7979 26.1279 
394 1 38.4 38.7979 26.1279 
396 1 41.6 38.7979 26.1279 
398 1 44.8 38.7979 26.1279 
400 1 48 38.7979 26.1279 
391 1 33.6 41.5692 26.1279 
393 1 36.8 41.5692 26.1279 
395 1 40 41.5692 26.1279 
397 1 43.2 41.5692 26.1279 
399 1 46.4 41.5692 26.1279 
401 1 49.6 41.5692 26.1279 
403 1 32 44.3405 26.1279 
405 1 35.2 44.3405 26.1279 
407 1 38.4 44.3405 26.1279 
409 1 41.6 44.3405 26.1279 
411 1 44.8 44.3405 26.1279 
413 1 48 44.3405 26.1279 
402 1 30.4 47.1118 26.1279 
415 1 32 49.8831 26.1279 
404 1 33.6 47.1118 26.1279 
416 1 35.2 49.8831 26.1279 
406 1 36.8 47.1118 26.1279 
408 1 40 47.1118 26.1279 
417 1 38.4 49.8831 26.1279 
410 1 43.2 47.1118 26.1279 
418 1 41.6 49.8831 26.1279 
412 1 46.4 47.1118 26.1279 
419 1 44.8 49.8831 26.1279 
414 1 49.6 47.1118 26.1279 
420 1 48 49.8831 26.1279 
421 1 43.2 32.3316 28.7407 
422 1 46.4 32.3316 28.7407 
458 1 46.4 30.4841 31.3535 
423 1 49.6 32.3316 28.7407 
460 1 49.6 30.4841 31.3535 
426 1 38.4 35.1029 28.7407 
428 1 41.6 35.1029 28.7407 
467 1 41.6 33.2554 31.3535 
430 1 44.8 35.1029 28.7407 
471 1 44.8 33.2554 31.3535 
432 1 48 35.1029 28.7407 
475 1 48 33.2554 31.3535 
424 1 36.8 37.8742 28.7407 
462 1 36.8 36.0267 31.3535 
425 1 40 37.8742 28.7407 
464 1 40 36.0267 31.3535 
427 1 43.2 37.8742 28.7407 
468 1 43.2 36.0267 31.3535 
429 1 46.4 37.8742 28.7407 
472 1 46.4 36.0267 31.3535 
431 1 49.6 37.8742 28.7407 
476 1 49.6 36.0267 31.3535 
435 1 35.2 40.6455 28.7407 
481 1 35.2 38.7979 31.3535 
437 1 38.4 40.6455 28.7407 
485 1 38.4 38.7979 31.3535 
439 1 41.6 40.6455 28.7407 
489 1 41.6 38.7979 31.3535 
441 1 44.8 40.6455 28.7407 
493 1 44.8 38.7979 31.3535 
443 1 48 40.6455 28.7407 
497 1 48 38.7979 31.3535 
433 1 33.6 43.4167 28.7407 
479 1 33.6 41.5692 31.3535 
434 1 36.8 43.4167 28.7407 
482 1 36.8 41.5692 31.3535 
436 1 40 43.4167 28.7407 
486 1 40 41.5692 31.3535 
438 1 43.2 43.4167 28.7407 
490 1 43.2 41.5692 31.3535 
440 1 46.4 43.4167 28.7407 
494 1 46.4 41.5692 31.3535 
442 1 49.6 43.4167 28.7407 
498 1 49.6 41.5692 31.3535 
446 1 32 46.188 28.7407 
503 1 32 44.3405 31.3535 
448 1 35.2 46.188 28.7407 
507 1 35.2 44.3405 31.3535 
450 1 38.4 46.188 28.7407 
511 1 38.4 44.3405 31.3535 
452 1 41.6 46.188 28.7407 
515 1 41.6 44.3405 31.3535 
454 1 44.8 46.188 28.7407 
519 1 44.8 44.3405 31.3535 
456 1 48 46.188 28.7407 
523 1 48 44.3405 31.3535 
444 1 30.4 48.9593 28.7407 
501 1 30.4 47.1118 31.3535 
527 1 32 49.8831 31.3535 
445 1 33.6 48.9593 28.7407 
504 1 33.6 47.1118 31.3535 
528 1 35.2 49.8831 31.3535 
447 1 36.8 48.9593 28.7407 
508 1 36.8 47.1118 31.3535 
449 1 40 48.9593 28.7407 
512 1 40 47.1118 31.3535 
529 1 38.4 49.8831 31.3535 
451 1 43.2 48.9593 28.7407 
516 1 43.2 47.1118 31.3535 
530 1 41.6 49.8831 31.3535 
453 1 46.4 48.9593 28.7407 
520 1 46.4 47.1118 31.3535 
531 1 44.8 49.8831 31.3535 
455 1 49.6 48.9593 28.7407 
524 1 49.6 47.1118 31.3535 
532 1 48 49.8831 31.3535 
457 1 43.2 32.3316 33.9663 
459 1 46.4 32.3316 33.9663 
461 1 49.6 32.3316 33.9663 
466 1 38.4 35.1029 33.9663 
470 1 41.6 35.1029 33.9663 
474 1 44.8 35.1029 33.9663 
478 1 48 35.1029 33.9663 
463 1 36.8 37.8742 33.9663 
465 1 40 37.8742 33.9663 
469 1 43.2 37.8742 33.9663 
473 1 46.4 37.8742 33.9663 
477 1 49.6 37.8742 33.9663 
484 1 35.2 40.6455 33.9663 
488 1 38.4 40.6455 33.9663 
492 1 41.6 40.6455 33.9663 
496 1 44.8 40.6455 33.9663 
500 1 48 40.6455 33.9663 
480 1 33.6 43.4167 33.9663 
483 1 36.8 43.4167 33.9663 
487 1 40 43.4167 33.9663 
491 1 43.2 43.4167 33.9663 
495 1 46.4 43.4167 33.9663 
499 1 49.6 43.4167 33.9663 
506 1 32 46.188 33.9663 
510 1 35.2 46.188 33.9663 
514 1 38.4 46.188 33.9663 
518 1 41.6 46.188 33.9663 
522 1 44.8 46.188 33.9663 
526 1 48 46.188 33.9663 
502 1 30.4 48.9593 33.9663 
505 1 33.6 48.9593 33.9663 
509 1 36.8 48.9593 33.9663 
513 1 40 48.9593 33.9663 
517 1 43.2 48.9593 33.9663 
521 1 46.4 48.9593 33.9663 
525 1 49.6 48.9593 33.9663 
533 1 43.2 32.3316 39.1918 
534 1 46.4 30.4841 36.579 
535 1 46.4 32.3316 39.1918 
536 1 49.6 30.4841 36.579 
537 1 49.6 32.3316 39.1918 
542 1 38.4 35.1029 39.1918 
543 1 41.6 33.2554 36.579 
546 1 41.6 35.1029 39.1918 
547 1 44.8 33.2554 36.579 
550 1 44.8 35.1029 39.1918 
551 1 48 33.2554 36.579 
554 1 48 35.1029 39.1918 
538 1 36.8 36.0267 36.579 
539 1 36.8 37.8742 39.1918 
540 1 40 36.0267 36.579 
541 1 40 37.8742 39.1918 
544 1 43.2 36.0267 36.579 
545 1 43.2 37.8742 39.1918 
548 1 46.4 36.0267 36.579 
549 1 46.4 37.8742 39.1918 
552 1 49.6 36.0267 36.579 
553 1 49.6 37.8742 39.1918 
557 1 35.2 38.7979 36.579 
560 1 35.2 40.6455 39.1918 
561 1 38.4 38.7979 36.579 
564 1 38.4 40.6455 39.1918 
565 1 41.6 38.7979 36.579 
568 1 41.6 40.6455 39.1918 
569 1 44.8 38.7979 36.579 
572 1 44.8 40.6455 39.1918 
573 1 48 38.7979 36.579 
576 1 48 40.6455 39.1918 
555 1 33.6 41.5692 36.579 
556 1 33.6 43.4167 39.1918 
558 1 36.8 41.5692 36.579 
559 1 36.8 43.4167 39.1918 
562 1 40 41.5692 36.579 
563 1 40 43.4167 39.1918 
566 1 43.2 41.5692 36.579 
567 1 43.2 43.4167 39.1918 
570 1 46.4 41.5692 36.579 
571 1 46.4 43.4167 39.1918 
574 1 49.6 41.5692 36.579 
575 1 49.6 43.4167 39.1918 
579 1 32 44.3405 36.579 
582 1 32 46.188 39.1918 
583 1 35.2 44.3405 36.579 
586 1 35.2 46.188 39.1918 
587 1 38.4 44.3405 36.579 
590 1 38.4 46.188 39.1918 
591 1 41.6 44.3405 36.579 
594 1 41.6 46.188 39.1918 
595 1 44.8 44.3405 36.579 
598 1 44.8 46.188 39.1918 
599 1 48 44.3405 36.579 
602 1 48 46.188 39.1918 
577 1 30.4 47.1118 36.579 
578 1 30.4 48.9593 39.1918 
603 1 32 49.8831 36.579 
580 1 33.6 47.1118 36.579 
581 1 33.6 48.9593 39.1918 
604 1 35.2 49.8831 36.579 
584 1 36.8 47.1118 36.579 
585 1 36.8 48.9593 39.1918 
588 1 40 47.1118 36.579 
589 1 40 48.9593 39.1918 
605 1 38.4 49.8831 36.579 
592 1 43.2 47.1118 36.579 
593 1 43.2 48.9593 39.1918 
606 1 41.6 49.8831 36.579 
596 1 46.4 47.1118 36.579 
597 1 46.4 48.9593 39.1918 
607 1 44.8 49.8831 36.579 
600 1 49.6 47.1118 36.579 
601 1 49.6 48.9593 39.1918 
608 1 48 49.8831 36.579 
609 1 46.4 30.4841 41.8046 
610 1 49.6 30.4841 41.8046 
613 1 41.6 33.2554 41.8046 
615 1 44.8 33.2554 41.8046 
617 1 48 33.2554 41.8046 
611 1 36.8 36.0267 41.8046 
612 1 40 36.0267 41.8046 
614 1 43.2 36.0267 41.8046 
616 1 46.4 36.0267 41.8046 
618 1 49.6 36.0267 41.8046 
620 1 35.2 38.7979 41.8046 
622 1 38.4 38.7979 41.8046 
624 1 41.6 38.7979 41.8046 
626 1 44.8 38.7979 41.8046 
628 1 48 38.7979 41.8046 
619 1 33.6 41.5692 41.8046 
621 1 36.8 41.5692 41.8046 
623 1 40 41.5692 41.8046 
625 1 43.2 41.5692 41.8046 
627 1 46.4 41.5692 41.8046 
629 1 49.6 41.5692 41.8046 
631 1 32 44.3405 41.8046 
633 1 35.2 44.3405 41.8046 
635 1 38.4 44.3405 41.8046 
637 1 41.6 44.3405 41.8046 
639 1 44.8 44.3405 41.8046 
641 1 48 44.3405 41.8046 
630 1 30.4 47.1118 41.8046 
643 1 32 49.8831 41.8046 
632 1 33.6 47.1118 41.8046 
644 1 35.2 49.8831 41.8046 
634 1 36.8 47.1118 41.8046 
636 1 40 47.1118 41.8046 
645 1 38.4 49.8831 41.8046 
638 1 43.2 47.1118 41.8046 
646 1 41.6 49.8831 41.8046 
640 1 46.4 47.1118 41.8046 
647 1 44.8 49.8831 41.8046 
642 1 49.6 47.1118 41.8046 
648 1 48 49.8831 41.8046 
649 1 43.2 32.3316 44.4174 
650 1 46.4 32.3316 44.4174 
651 1 49.6 32.3316 44.4174 
654 1 38.4 35.1029 44.4174 
656 1 41.6 35.1029 44.4174 
658 1 44.8 35.1029 44.4174 
660 1 48 35.1029 44.4174 
652 1 36.8 37.8742 44.4174 
653 1 40 37.8742 44.4174 
655 1 43.2 37.8742 44.4174 
657 1 46.4 37.8742 44.4174 
659 1 49.6 37.8742 44.4174 
663 1 35.2 40.6455 44.4174 
665 1 38.4 40.6455 44.4174 
667 1 41.6 40.6455 44.4174 
669 1 44.8 40.6455 44.4174 
671 1 48 40.6455 44.4174 
661 1 33.6 43.4167 44.4174 
662 1 36.8 43.4167 44.4174 
664 1 40 43.4167 44.4174 
666 1 43.2 43.4167 44.4174 
668 1 46.4 43.4167 44.4174 
670 1 49.6 43.4167 44.4174 
674 1 32 46.188 44.4174 
676 1 35.2 46.188 44.4174 
678 1 38.4 46.188 44.4174 
680 1 41.6 46.188 44.4174 
682 1 44.8 46.188 44.4174 
684 1 48 46.188 44.4174 
672 1 30.4 48.9593 44.4174 
673 1 33.6 48.9593 44.4174 
675 1 36.8 48.9593 44.4174 
677 1 40 48.9593 44.4174 
679 1 43.2 48.9593 44.4174 
681 1 46.4 48.9593 44.4174 
683 1 49.6 48.9593 44.4174 
685 1 43.2 32.3316 49.643 
686 1 46.4 30.4841 47.0302 
687 1 46.4 32.3316 49.643 
688 1 49.6 30.4841 47.0302 
689 1 49.6 32.3316 49.643 
694 1 38.4 35.1029 49.643 
695 1 41.6 33.2554 47.0302 
698 1 41.6 35.1029 49.643 
699 1 44.8 33.2554 47.0302 
702 1 44.8 35.1029 49.643 
703 1 48 33.2554 47.0302 
706 1 48 35.1029 49.643 
690 1 36.8 36.0267 47.0302 
691 1 36.8 37.8742 49.643 
692 1 40 36.0267 47.0302 
693 1 40 37.8742 49.643 
696 1 43.2 36.0267 47.0302 
697 1 43.2 37.8742 49.643 
700 1 46.4 36.0267 47.0302 
701 1 46.4 37.8742 49.643 
704 1 49.6 36.0267 47.0302 
705 1 49.6 37.8742 49.643 
709 1 35.2 38.7979 47.0302 
712 1 35.2 40.6455 49.643 
713 1 38.4 38.7979 47.0302 
716 1 38.4 40.6455 49.643 
717 1 41.6 38.7979 47.0302 
720 1 41.6 40.6455 49.643 
721 1 44.8 38.7979 47.0302 
724 1 44.8 40.6455 49.643 
725 1 48 38.7979 47.0302 
728 1 48 40.6455 49.643 
707 1 33.6 41.5692 47.0302 
708 1 33.6 43.4167 49.643 
710 1 36.8 41.5692 47.0302 
711 1 36.8 43.4167 49.643 
714 1 40 41.5692 47.0302 
715 1 40 43.4167 49.643 
718 1 43.2 41.5692 47.0302 
719 1 43.2 43.4167 49.643 
722 1 46.4 41.5692 47.0302 
723 1 46.4 43.4167 49.643 
726 1 49.6 41.5692 47.0302 
727 1 49.6 43.4167 49.643 
731 1 32 44.3405 47.0302 
734 1 32 46.188 49.643 
735 1 35.2 44.3405 47.0302 
738 1 35.2 46.188 49.643 
739 1 38.4 44.3405 47.0302 
742 1 38.4 46.188 49.643 
743 1 41.6 44.3405 47.0302 
746 1 41.6 46.188 49.643 
747 1 44.8 44.3405 47.0302 
750 1 44.8 46.188 49.643 
751 1 48 44.3405 47.0302 
754 1 48 46.188 49.643 
729 1 30.4 47.1118 47.0302 
730 1 30.4 48.9593 49.643 
755 1 32 49.8831 47.0302 
732 1 33.6 47.1118 47.0302 
733 1 33.6 48.9593 49.643 
756 1 35.2 49.8831 47.0302 
736 1 36.8 47.1118 47.0302 
737 1 36.8 48.9593 49.643 
740 1 40 47.1118 47.0302 
741 1 40 48.9593 49.643 
757 1 38.4 49.8831 47.0302 
744 1 43.2 47.1118 47.0302 
745 1 43.2 48.9593 49.643 
758 1 41.6 49.8831 47.0302 
748 1 46.4 47.1118 47.0302 
749 1 46.4 48.9593 49.643 
759 1 44.8 49.8831 47.0302 
752 1 49.6 47.1118 47.0302 
753 1 49.6 48.9593 49.643 
760 1 48 49.8831 47.0302 
762 1 46.4 30.4841 52.2558 
764 1 49.6 30.4841 52.2558 
771 1 41.6 33.2554 52.2558 
775 1 44.8 33.2554 52.2558 
779 1 48 33.2554 52.2558 
766 1 36.8 36.0267 52.2558 
768 1 40 36.0267 52.2558 
772 1 43.2 36.0267 52.2558 
776 1 46.4 36.0267 52.2558 
780 1 49.6 36.0267 52.2558 
785 1 35.2 38.7979 52.2558 
789 1 38.4 38.7979 52.2558 
793 1 41.6 38.7979 52.2558 
797 1 44.8 38.7979 52.2558 
801 1 48 38.7979 52.2558 
783 1 33.6 41.5692 52.2558 
786 1 36.8 41.5692 52.2558 
790 1 40 41.5692 52.2558 
794 1 43.2 41.5692 52.2558 
798 1 46.4 41.5692 52.2558 
802 1 49.6 41.5692 52.2558 
807 1 32 44.3405 52.2558 
811 1 35.2 44.3405 52.2558 
815 1 38.4 44.3405 52.2558 
819 1 41.6 44.3405 52.2558 
823 1 44.8 44.3405 52.2558 
827 1 48 44.3405 52.2558 
805 1 30.4 47.1118 52.2558 
831 1 32 49.8831 52.2558 
808 1 33.6 47.1118 52.2558 
832 1 35.2 49.8831 52.2558 
812 1 36.8 47.1118 52.2558 
816 1 40 47.1118 52.2558 
833 1 38.4 49.8831 52.2558 
820 1 43.2 47.1118 52.2558 
834 1 41.6 49.8831 52.2558 
824 1 46.4 47.1118 52.2558 
835 1 44.8 49.8831 52.2558 
828 1 49.6 47.1118 52.2558 
836 1 48 49.8831 52.2558 
761 1 43.2 32.3316 54.8686 
763 1 46.4 32.3316 54.8686 
765 1 49.6 32.3316 54.8686 
770 1 38.4 35.1029 54.8686 
774 1 41.6 35.1029 54.8686 
778 1 44.8 35.1029 54.8686 
782 1 48 35.1029 54.8686 
767 1 36.8 37.8742 54.8686 
769 1 40 37.8742 54.8686 
773 1 43.2 37.8742 54.8686 
777 1 46.4 37.8742 54.8686 
781 1 49.6 37.8742 54.8686 
788 1 35.2 40.6455 54.8686 
792 1 38.4 40.6455 54.8686 
796 1 41.6 40.6455 54.8686 
800 1 44.8 40.6455 54.8686 
804 1 48 40.6455 54.8686 
784 1 33.6 43.4167 54.8686 
787 1 36.8 43.4167 54.8686 
791 1 40 43.4167 54.8686 
795 1 43.2 43.4167 54.8686 
799 1 46.4 43.4167 54.8686 
803 1 49.6 43.4167 54.8686 
810 1 32 46.188 54.8686 
814 1 35.2 46.188 54.8686 
818 1 38.4 46.188 54.8686 
822 1 41.6 46.188 54.8686 
826 1 44.8 46.188 54.8686 
830 1 48 46.188 54.8686 
806 1 30.4 48.9593 54.8686 
809 1 33.6 48.9593 54.8686 
813 1 36.8 48.9593 54.8686 
817 1 40 48.9593 54.8686 
821 1 43.2 48.9593 54.8686 
825 1 46.4 48.9593 54.8686 
829 1 49.6 48.9593 54.8686 
837 1 43.2 32.3316 60.0941 
838 1 46.4 30.4841 57.4814 
839 1 46.4 32.3316 60.0941 
840 1 49.6 30.4841 57.4814 
841 1 49.6 32.3316 60.0941 
846 1 38.4 35.1029 60.0941 
847 1 41.6 33.2554 57.4814 
850 1 41.6 35.1029 60.0941 
851 1 44.8 33.2554 57.4814 
854 1 44.8 35.1029 60.0941 
855 1 48 33.2554 57.4814 
858 1 48 35.1029 60.0941 
842 1 36.8 36.0267 57.4814 
843 1 36.8 37.8742 60.0941 
844 1 40 36.0267 57.4814 
845 1 40 37.8742 60.0941 
848 1 43.2 36.0267 57.4814 
849 1 43.2 37.8742 60.0941 
852 1 46.4 36.0267 57.4814 
853 1 46.4 37.8742 60.0941 
856 1 49.6 36.0267 57.4814 
857 1 49.6 37.8742 60.0941 
861 1 35.2 38.7979 57.4814 
864 1 35.2 40.6455 60.0941 
865 1 38.4 38.7979 57.4814 
868 1 38.4 40.6455 60.0941 
869 1 41.6 38.7979 57.4814 
872 1 41.6 40.6455 60.0941 
873 1 44.8 38.7979 57.4814 
876 1 44.8 40.6455 60.0941 
877 1 48 38.7979 57.4814 
880 1 48 40.6455 60.0941 
859 1 33.6 41.5692 57.4814 
860 1 33.6 43.4167 60.0941 
862 1 36.8 41.5692 57.4814 
863 1 36.8 43.4167 60.0941 
866 1 40 41.5692 57.4814 
867 1 40 43.4167 60.0941 
870 1 43.2 41.5692 57.4814 
871 1 43.2 43.4167 60.0941 
874 1 46.4 41.5692 57.4814 
875 1 46.4 43.4167 60.0941 
878 1 49.6 41.5692 57.4814 
879 1 49.6 43.4167 60.0941 
883 1 32 44.3405 57.4814 
886 1 32 46.188 60.0941 
887 1 35.2 44.3405 57.4814 
890 1 35.2 46.188 60.0941 
891 1 38.4 44.3405 57.4814 
894 1 38.4 46.188 60.0941 
895 1 41.6 44.3405 57.4814 
898 1 41.6 46.188 60.0941 
899 1 44.8 44.3405 57.4814 
902 1 44.8 46.188 60.0941 
903 1 48 44.3405 57.4814 
906 1 48 46.188 60.0941 
881 1 30.4 47.1118 57.4814 
882 1 30.4 48.9593 60.0941 
907 1 32 49.8831 57.4814 
884 1 33.6 47.1118 57.4814 
885 1 33.6 48.9593 60.0941 
908 1 35.2 49.8831 57.4814 
888 1 36.8 47.1118 57.4814 
889 1 36.8 48.9593 60.0941 
892 1 40 47.1118 57.4814 
893 1 40 48.9593 60.0941 
909 1 38.4 49.8831 57.4814 
896 1 43.2 47.1118 57.4814 
897 1 43.2 48.9593 60.0941 
910 1 41.6 49.8831 57.4814 
900 1 46.4 47.1118 57.4814 
901 1 46.4 48.9593 60.0941 
911 1 44.8 49.8831 57.4814 
904 1 49.6 47.1118 57.4814 
905 1 49.6 48.9593 60.0941 
912 1 48 49.8831 57.4814 
914 1 46.4 30.4841 62.7069 
916 1 49.6 30.4841 62.7069 
923 1 41.6 33.2554 62.7069 
927 1 44.8 33.2554 62.7069 
931 1 48 33.2554 62.7069 
918 1 36.8 36.0267 62.7069 
920 1 40 36.0267 62.7069 
924 1 43.2 36.0267 62.7069 
928 1 46.4 36.0267 62.7069 
932 1 49.6 36.0267 62.7069 
937 1 35.2 38.7979 62.7069 
941 1 38.4 38.7979 62.7069 
945 1 41.6 38.7979 62.7069 
949 1 44.8 38.7979 62.7069 
953 1 48 38.7979 62.7069 
935 1 33.6 41.5692 62.7069 
938 1 36.8 41.5692 62.7069 
942 1 40 41.5692 62.7069 
946 1 43.2 41.5692 62.7069 
950 1 46.4 41.5692 62.7069 
954 1 49.6 41.5692 62.7069 
959 1 32 44.3405 62.7069 
963 1 35.2 44.3405 62.7069 
967 1 38.4 44.3405 62.7069 
971 1 41.6 44.3405 62.7069 
975 1 44.8 44.3405 62.7069 
979 1 48 44.3405 62.7069 
957 1 30.4 47.1118 62.7069 
983 1 32 49.8831 62.7069 
960 1 33.6 47.1118 62.7069 
984 1 35.2 49.8831 62.7069 
964 1 36.8 47.1118 62.7069 
968 1 40 47.1118 62.7069 
985 1 38.4 49.8831 62.7069 
972 1 43.2 47.1118 62.7069 
986 1 41.6 49.8831 62.7069 
976 1 46.4 47.1118 62.7069 
987 1 44.8 49.8831 62.7069 
980 1 49.6 47.1118 62.7069 
988 1 48 49.8831 62.7069 
913 1 43.2 32.3316 65.3197 
915 1 46.4 32.3316 65.3197 
917 1 49.6 32.3316 65.3197 
922 1 38.4 35.1029 65.3197 
926 1 41.6 35.1029 65.3197 
930 1 44.8 35.1029 65.3197 
934 1 48 35.1029 65.3197 
919 1 36.8 37.8742 65.3197 
921 1 40 37.8742 65.3197 
925 1 43.2 37.8742 65.3197 
929 1 46.4 37.8742 65.3197 
933 1 49.6 37.8742 65.3197 
940 1 35.2 40.6455 65.3197 
944 1 38.4 40.6455 65.3197 
948 1 41.6 40.6455 65.3197 
952 1 44.8 40.6455 65.3197 
956 1 48 40.6455 65.3197 
936 1 33.6 43.4167 65.3197 
939 1 36.8 43.4167 65.3197 
943 1 40 43.4167 65.3197 
947 1 43.2 43.4167 65.3197 
951 1 46.4 43.4167 65.3197 
955 1 49.6 43.4167 65.3197 
962 1 32 46.188 65.3197 
966 1 35.2 46.188 65.3197 
970 1 38.4 46.188 65.3197 
974 1 41.6 46.188 65.3197 
978 1 44.8 46.188 65.3197 
982 1 48 46.188 65.3197 
958 1 30.4 48.9593 65.3197 
961 1 33.6 48.9593 65.3197 
965 1 36.8 48.9593 65.3197 
969 1 40 48.9593 65.3197 
973 1 43.2 48.9593 65.3197 
977 1 46.4 48.9593 65.3197 
981 1 49.6 48.9593 65.3197 
989 1 43.2 32.3316 70.5453 
990 1 46.4 30.4841 67.9325 
991 1 46.4 32.3316 70.5453 
992 1 49.6 30.4841 67.9325 
993 1 49.6 32.3316 70.5453 
998 1 38.4 35.1029 70.5453 
999 1 41.6 33.2554 67.9325 
1002 1 41.6 35.1029 70.5453 
1003 1 44.8 33.2554 67.9325 
1006 1 44.8 35.1029 70.5453 
1007 1 48 33.2554 67.9325 
1010 1 48 35.1029 70.5453 
994 1 36.8 36.0267 67.9325 
995 1 36.8 37.8742 70.5453 
996 1 40 36.0267 67.9325 
997 1 40 37.8742 70.5453 
1000 1 43.2 36.0267 67.9325 
1001 1 43.2 37.8742 70.5453 
1004 1 46.4 36.0267 67.9325 
1005 1 46.4 37.8742 70.5453 
1008 1 49.6 36.0267 67.9325 
1009 1 49.6 37.8742 70.5453 
1013 1 35.2 38.7979 67.9325 
1016 1 35.2 40.6455 70.5453 
1017 1 38.4 38.7979 67.9325 
1020 1 38.4 40.6455 70.5453 
1021 1 41.6 38.7979 67.9325 
1024 1 41.6 40.6455 70.5453 
1025 1 44.8 38.7979 67.9325 
1028 1 44.8 40.6455 70.5453 
1029 1 48 38.7979 67.9325 
1032 1 48 40.6455 70.5453 
1011 1 33.6 41.5692 67.9325 
1012 1 33.6 43.4167 70.5453 
1014 1 36.8 41.5692 67.9325 
1015 1 36.8 43.4167 70.5453 
1018 1 40 41.5692 67.9325 
1019 1 40 43.4167 70.5453 
1022 1 43.2 41.5692 67.9325 
1023 1 43.2 43.4167 70.5453 
1026 1 46.4 41.5692 67.9325 
1027 1 46.4 43.4167 70.5453 
1030 1 49.6 41.5692 67.9325 
1031 1 49.6 43.4167 70.5453 
1035 1 32 44.3405 67.9325 
1038 1 32 46.188 70.5453 
1039 1 35.2 44.3405 67.9325 
1042 1 35.2 46.188 70.5453 
1043 1 38.4 44.3405 67.9325 
1046 1 38.4 46.188 70.5453 
1047 1 41.6 44.3405 67.9325 
1050 1 41.6 46.188 70.5453 
1051 1 44.8 44.3405 67.9325 
1054 1 44.8 46.188 70.5453 
1055 1 48 44.3405 67.9325 
1058 1 48 46.188 70.5453 
1033 1 30.4 47.1118 67.9325 
1034 1 30.4 48.9593 70.5453 
1059 1 32 49.8831 67.9325 
1036 1 33.6 47.1118 67.9325 
1037 1 33.6 48.9593 70.5453 
1060 1 35.2 49.8831 67.9325 
1040 1 36.8 47.1118 67.9325 
1041 1 36.8 48.9593 70.5453 
1044 1 40 47.1118 67.9325 
1045 1 40 48.9593 70.5453 
1061 1 38.4 49.8831 67.9325 
1048 1 43.2 47.1118 67.9325 
1049 1 43.2 48.9593 70.5453 
1062 1 41.6 49.8831 67.9325 
1052 1 46.4 47.1118 67.9325 
1053 1 46.4 48.9593 70.5453 
1063 1 44.8 49.8831 67.9325 
1056 1 49.6 47.1118 67.9325 
1057 1 49.6 48.9593 70.5453 
1064 1 48 49.8831 67.9325 
1066 1 46.4 30.4841 73.1581 
1068 1 49.6 30.4841 73.1581 
1075 1 41.6 33.2554 73.1581 
1079 1 44.8 33.2554 73.1581 
1083 1 48 33.2554 73.1581 
1070 1 36.8 36.0267 73.1581 
1072 1 40 36.0267 73.1581 
1076 1 43.2 36.0267 73.1581 
1080 1 46.4 36.0267 73.1581 
1084 1 49.6 36.0267 73.1581 
1089 1 35.2 38.7979 73.1581 
1093 1 38.4 38.7979 73.1581 
1097 1 41.6 38.7979 73.1581 
1101 1 44.8 38.7979 73.1581 
1105 1 48 38.7979 73.1581 
1087 1 33.6 41.5692 73.1581 
1090 1 36.8 41.5692 73.1581 
1094 1 40 41.5692 73.1581 
1098 1 43.2 41.5692 73.1581 
1102 1 46.4 41.5692 73.1581 
1106 1 49.6 41.5692 73.1581 
1111 1 32 44.3405 73.1581 
1115 1 35.2 44.3405 73.1581 
1119 1 38.4 44.3405 73.1581 
1123 1 41.6 44.3405 73.1581 
1127 1 44.8 44.3405 73.1581 
1131 1 48 44.3405 73.1581 
1109 1 30.4 47.1118 73.1581 
1135 1 32 49.8831 73.1581 
1112 1 33.6 47.1118 73.1581 
1136 1 35.2 49.8831 73.1581 
1116 1 36.8 47.1118 73.1581 
1120 1 40 47.1118 73.1581 
1137 1 38.4 49.8831 73.1581 