ITEM: TIMESTEP
10000
ITEM: NUMBER OF ATOMS
5538
ITEM: BOX BOUNDS pp pp pp
0 100
0 100
0 100
ITEM: ATOMS id type x y z 
15 1 45.4846 35.1126 4.67684 
19 1 48.3189 35.217 4.57507 
8 1 41.2007 37.4676 4.8331 
12 1 44.0059 37.4525 4.70449 
16 1 46.8346 37.6026 4.60885 
20 1 49.7052 37.6516 4.54563 
29 1 39.8341 39.9136 4.70755 
33 1 42.5921 39.9516 4.71841 
37 1 45.4127 39.9988 4.67049 
41 1 48.2756 40.0515 4.56562 
26 1 38.3638 42.368 4.62629 
30 1 41.2157 42.4092 4.6698 
34 1 44.0208 42.4207 4.59853 
38 1 46.8787 42.4779 4.53247 
42 1 49.6774 42.4749 4.5475 
51 1 37.01 44.8255 4.61034 
55 1 39.8457 44.8309 4.62287 
59 1 42.6463 44.8591 4.6211 
63 1 45.4735 44.9093 4.5123 
67 1 48.2807 44.9311 4.40346 
71 1 34.1547 49.6545 4.75211 
48 1 35.6547 47.2652 4.67395 
72 1 37.0476 49.7256 4.61937 
52 1 38.4687 47.3062 4.61174 
73 1 39.8918 49.7434 4.52866 
56 1 41.2725 47.3322 4.54011 
60 1 44.1218 47.3441 4.44488 
74 1 42.7416 49.7742 4.43923 
64 1 46.9184 47.337 4.25027 
75 1 45.5368 49.8037 4.28251 
68 1 49.6822 47.407 4.21683 
76 1 48.3075 49.8284 4.17139 
2 1 47.1156 32.7935 4.68661 
4 1 48.2285 31.7824 6.98218 
11 1 41.2347 34.3377 7.09485 
1 1 44.0587 34.2687 7.03937 
3 1 46.8703 34.3003 6.99579 
5 1 49.673 34.234 6.83976 
6 1 36.9141 36.8941 7.10788 
10 1 39.7277 36.6495 7.1093 
14 1 42.6472 36.6973 7.11058 
18 1 45.4758 36.7533 7.0075 
22 1 48.3175 36.773 6.94195 
25 1 35.5128 39.2549 6.91302 
7 1 38.3949 39.1564 7.06918 
9 1 41.2136 39.132 7.12867 
13 1 44.0398 39.1319 7.04811 
17 1 46.8443 39.2507 6.99406 
21 1 49.7057 39.2286 6.94181 
23 1 34.1614 41.6953 6.87429 
24 1 35.5942 44.0823 6.95413 
28 1 36.9878 41.6063 6.9919 
27 1 38.4156 44.0226 6.98403 
32 1 39.8135 41.6302 7.0343 
31 1 41.3095 44.0662 7.01571 
36 1 42.6861 41.6168 7.03048 
35 1 44.1026 44.1158 6.92791 
40 1 45.4898 41.6703 6.96968 
39 1 46.9264 44.1117 6.8592 
44 1 48.3199 41.6588 6.93257 
43 1 49.7432 44.1026 6.8512 
45 1 31.395 46.3759 7.1624 
47 1 32.8206 44.101 6.67531 
50 1 34.1244 46.546 6.8876 
54 1 37.0274 46.4977 6.97458 
58 1 39.8822 46.4651 6.95829 
62 1 42.708 46.564 6.90144 
66 1 45.5346 46.5614 6.78155 
70 1 48.3545 46.5508 6.68298 
46 1 32.6709 48.9031 7.04622 
49 1 35.6156 48.9871 6.97298 
53 1 38.4616 48.9606 6.9275 
57 1 41.2875 48.9885 6.88005 
61 1 44.1 48.9742 6.79845 
65 1 46.9141 48.9784 6.63848 
69 1 49.7086 49.0643 6.55866 
78 1 46.8891 32.6696 9.32229 
80 1 49.6718 32.6061 9.18418 
87 1 42.5811 34.9904 9.43932 
77 1 44.0053 34.238 11.7813 
91 1 45.4125 35.0628 9.40536 
79 1 46.8605 34.1466 11.7402 
95 1 48.2776 35.1047 9.31879 
81 1 49.7018 34.0896 11.632 
82 1 38.3433 37.4405 9.39108 
84 1 41.1842 37.4458 9.43 
86 1 39.811 36.5631 11.7398 
88 1 44.0659 37.5222 9.40974 
90 1 42.631 36.7051 11.7945 
92 1 46.8617 37.5718 9.3992 
94 1 45.468 36.6828 11.795 
96 1 49.6826 37.5607 9.33281 
98 1 48.3064 36.6184 11.7802 
101 1 36.8328 39.8248 9.32615 
83 1 38.3423 38.9958 11.778 
105 1 39.7537 39.969 9.43717 
85 1 41.1795 39.0751 11.7448 
109 1 42.6515 39.9553 9.4422 
89 1 44.0709 39.1169 11.8109 
113 1 45.472 40.0089 9.39656 
93 1 46.8725 39.1164 11.7814 
117 1 48.31 40.0494 9.32542 
97 1 49.7241 39.1224 11.7396 
99 1 35.4394 42.3158 9.28813 
100 1 35.4235 43.9197 11.6431 
102 1 38.2796 42.3611 9.37625 
104 1 36.9151 41.4546 11.733 
103 1 38.2946 44.0137 11.7411 
106 1 41.2213 42.402 9.42639 
108 1 39.749 41.5623 11.7879 
107 1 41.1487 44.0288 11.7635 
110 1 44.0681 42.4648 9.33173 
111 1 44.038 44.0472 11.7022 
112 1 42.6452 41.5983 11.8181 
114 1 46.9174 42.4771 9.32232 
116 1 45.4779 41.5607 11.7591 
115 1 46.891 44.0718 11.651 
118 1 49.7548 42.4887 9.3093 
120 1 48.2997 41.6103 11.6784 
119 1 49.7409 44.1366 11.6407 
123 1 34.0273 44.8474 9.21142 
126 1 34.097 46.4959 11.6409 
127 1 36.8882 44.7903 9.3545 
130 1 36.9329 46.4165 11.6751 
131 1 39.7765 44.8162 9.34892 
134 1 39.7578 46.4738 11.7313 
135 1 42.6593 44.9055 9.37331 
138 1 42.6208 46.5178 11.7374 
139 1 45.4913 44.9453 9.25202 
142 1 45.4721 46.5481 11.624 
143 1 48.3503 44.954 9.2129 
146 1 48.3131 46.5561 11.5604 
121 1 32.7091 47.3027 9.36976 
122 1 32.5904 49.0211 11.6067 
147 1 34.1279 49.7786 9.33424 
124 1 35.5215 47.2926 9.30424 
125 1 35.4852 48.9556 11.628 
148 1 36.9918 49.8037 9.28268 
128 1 38.4013 47.2904 9.34093 
129 1 38.3488 48.9539 11.6469 
132 1 41.2362 47.3271 9.34245 
149 1 39.8527 49.7846 9.28512 
133 1 41.185 48.9962 11.6873 
136 1 44.0496 47.3897 9.27567 
150 1 42.6511 49.8348 9.19844 
137 1 44.0028 48.9932 11.6349 
140 1 46.8949 47.3895 9.14289 
151 1 45.472 49.8282 9.15491 
141 1 46.8852 48.9825 11.5115 
144 1 49.7584 47.4252 9.08927 
152 1 48.2974 49.8606 9.02506 
145 1 49.7203 49.0555 11.4637 
220 1 49.7086 47.4123 13.8904 
163 1 42.4797 34.9314 14.0886 
167 1 45.352 35.02 14.1145 
154 1 46.6289 32.5994 14.0879 
171 1 48.1807 35.02 14.1261 
158 1 38.2972 37.3713 14.0927 
160 1 41.0723 37.4379 14.0976 
164 1 43.9591 37.4313 14.1599 
168 1 46.867 37.4932 14.1885 
172 1 49.7 37.5047 14.1299 
177 1 36.8233 39.8556 14.0482 
181 1 39.6934 39.8717 14.0875 
185 1 42.5748 39.9251 14.1563 
189 1 45.4402 39.9412 14.1541 
193 1 48.2991 39.9679 14.1124 
175 1 35.3744 42.3171 14.003 
178 1 38.2742 42.3428 14.1311 
182 1 41.1212 42.3475 14.1419 
186 1 44.0274 42.4109 14.1324 
190 1 46.8626 42.4227 14.1064 
194 1 49.7204 42.3994 14.0369 
199 1 33.9629 44.8136 13.9595 
203 1 36.7843 44.7726 14.0686 
207 1 39.6888 44.8259 14.1318 
211 1 42.5849 44.8478 14.0724 
215 1 45.4589 44.8845 14.0255 
219 1 48.3417 44.9062 13.9651 
197 1 32.5739 47.3266 13.9268 
200 1 35.4112 47.305 14.019 
223 1 34.0144 49.8112 13.9428 
224 1 36.8432 49.8136 14.0018 
204 1 38.2599 47.3261 14.0443 
208 1 41.1346 47.3341 14.0723 
225 1 39.7043 49.8116 14.0029 
226 1 42.5698 49.8553 13.9683 
212 1 44.0231 47.3597 14.0255 
216 1 46.8611 47.378 13.9302 
227 1 45.4435 49.8845 13.9199 
228 1 48.3165 49.8884 13.8837 
156 1 49.3893 32.5787 13.942 
153 1 44.0134 34.1089 16.421 
239 1 42.6191 34.8917 18.8923 
155 1 46.8565 34.0537 16.4892 
230 1 46.9316 32.5029 18.8887 
243 1 45.426 34.8625 18.8724 
157 1 49.669 34.0188 16.4126 
232 1 49.7027 32.4538 18.8293 
247 1 48.3189 34.9178 18.8658 
234 1 38.2837 37.3674 18.7931 
162 1 39.6996 36.5787 16.4722 
236 1 41.0965 37.3584 18.8664 
166 1 42.5307 36.534 16.4716 
240 1 43.9628 37.3595 18.8704 
170 1 45.3787 36.592 16.5268 
244 1 46.8374 37.3814 18.8664 
174 1 48.2709 36.5931 16.5426 
248 1 49.7893 37.3846 18.8539 
253 1 36.825 39.8324 18.764 
159 1 38.1871 39.0113 16.4265 
161 1 41.1143 39.0345 16.4636 
257 1 39.6335 39.8755 18.8542 
165 1 43.9535 39.047 16.5269 
261 1 42.484 39.8672 18.875 
169 1 46.8416 39.0952 16.5001 
265 1 45.3959 39.861 18.8665 
173 1 49.732 39.0632 16.4569 
269 1 48.3208 39.8708 18.8396 
251 1 35.3454 42.3251 18.7704 
176 1 35.2621 43.9312 16.4017 
180 1 36.739 41.5039 16.406 
179 1 38.178 43.996 16.455 
254 1 38.155 42.3167 18.8525 
184 1 39.5963 41.4744 16.4965 
183 1 41.0823 44.0302 16.4522 
258 1 41.0207 42.4101 18.8233 
188 1 42.4979 41.5207 16.5127 
262 1 43.9428 42.3727 18.8307 
187 1 43.962 44.0482 16.4389 
192 1 45.3952 41.5594 16.4957 
266 1 46.8691 42.3378 18.8254 
191 1 46.8334 44.0826 16.3825 
270 1 49.773 42.3576 18.782 
196 1 48.2623 41.5924 16.4966 
195 1 49.7026 44.0443 16.348 
202 1 33.8565 46.4822 16.3378 
275 1 33.9199 44.8613 18.7066 
206 1 36.7491 46.4497 16.3788 
279 1 36.7281 44.7967 18.795 
283 1 39.6232 44.884 18.827 
210 1 39.6765 46.5129 16.4223 
287 1 42.5152 44.8708 18.7795 
214 1 42.5079 46.543 16.3711 
291 1 45.3936 44.8651 18.7424 
218 1 45.3874 46.5425 16.3259 
295 1 48.2517 44.8645 18.7144 
222 1 48.248 46.5377 16.2924 
198 1 32.4892 48.9717 16.252 
201 1 35.3281 48.9791 16.388 
273 1 32.4916 47.3467 18.6634 
299 1 33.8375 49.8035 18.6888 
276 1 35.3042 47.3452 18.7551 
205 1 38.2085 48.9845 16.3678 
300 1 36.745 49.8431 18.7264 
280 1 38.1927 47.336 18.7723 
209 1 41.0711 49.0489 16.3684 
284 1 41.0774 47.3684 18.7322 
301 1 39.6101 49.8726 18.7189 
288 1 43.9357 47.3558 18.6678 
302 1 42.4727 49.886 18.6865 
213 1 43.953 49.041 16.3043 
292 1 46.7953 47.3835 18.6496 
303 1 45.3659 49.9099 18.5985 
217 1 46.8223 49.0692 16.2531 
296 1 49.6673 47.3617 18.6406 
304 1 48.2111 49.9086 18.6216 
221 1 49.7159 49.0517 16.2657 
229 1 44.0309 34.1344 21.2871 
231 1 46.8792 34.0387 21.2633 
233 1 49.7647 33.9573 21.2143 
238 1 39.6398 36.5681 21.2129 
242 1 42.4957 36.5353 21.2712 
246 1 45.401 36.59 21.2314 
250 1 48.3194 36.5366 21.1787 
235 1 38.1602 38.993 21.1513 
237 1 41.0687 39.0226 21.2329 
241 1 43.9637 39.0587 21.2003 
245 1 46.8551 39.0628 21.1845 
249 1 49.7658 39.032 21.1469 
252 1 35.2556 44.033 21.0953 
256 1 36.6926 41.4727 21.1552 
260 1 39.5857 41.5261 21.203 
259 1 41.0314 44.0625 21.1641 
264 1 42.4765 41.5491 21.1651 
263 1 43.9274 44.045 21.1494 
268 1 45.4238 41.5494 21.1911 
267 1 46.8116 44.0327 21.1189 
272 1 48.2977 41.532 21.1548 
271 1 49.6646 44.0226 21.072 
278 1 33.8196 46.5581 21.0553 
255 1 38.111 44.0181 21.1456 
282 1 36.6878 46.5717 21.107 
286 1 39.5676 46.595 21.1258 
290 1 42.4618 46.5626 21.0816 
294 1 45.286 46.537 21.0238 
298 1 48.2076 46.5589 20.9982 
274 1 32.4271 49.0054 21.0078 
277 1 35.2419 49.0697 21.075 
281 1 38.1487 49.0673 21.075 
285 1 41.0104 49.0565 21.0841 
289 1 43.8916 49.053 21.045 
293 1 46.7355 49.0134 20.9856 
297 1 49.6061 49.0333 20.9719 
315 1 42.6143 34.8895 23.6416 
305 1 44.0117 34.1674 26.003 
306 1 46.778 32.59 23.7102 
319 1 45.3956 34.9694 23.6396 
307 1 46.8021 34.1414 26.0252 
308 1 49.5548 32.4673 23.6557 
323 1 48.2509 34.9796 23.5686 
309 1 49.6848 34.0722 25.9329 
310 1 38.2414 37.4298 23.5578 
312 1 41.0573 37.3499 23.5801 
314 1 39.592 36.7067 26.0154 
316 1 43.9463 37.4329 23.5758 
318 1 42.4773 36.611 25.9286 
320 1 46.8611 37.4531 23.5706 
322 1 45.3485 36.649 25.9321 
324 1 49.7525 37.4195 23.526 
326 1 48.2624 36.6026 25.9158 
329 1 36.7421 39.9054 23.4966 
311 1 38.1008 39.1489 25.8774 
333 1 39.6008 39.9408 23.5374 
313 1 41.0281 39.1433 25.9241 
337 1 42.4824 39.9136 23.5446 
317 1 43.9094 39.1191 25.8925 
341 1 45.3886 39.9379 23.5481 
321 1 46.8375 39.1599 25.8847 
345 1 48.3034 39.918 23.5084 
325 1 49.6987 39.0965 25.866 
327 1 35.2688 42.3938 23.4876 
332 1 36.7016 41.6842 25.8439 
330 1 38.0907 42.4072 23.5115 
334 1 41.0198 42.4419 23.4999 
336 1 39.5994 41.6626 25.8581 
331 1 38.1332 44.1475 25.8441 
335 1 41.06 44.1721 25.8659 
338 1 43.8785 42.4104 23.4907 
340 1 42.4489 41.6485 25.8804 
339 1 43.9339 44.1045 25.831 
342 1 46.7899 42.4068 23.4835 
344 1 45.3311 41.635 25.8763 
346 1 49.7309 42.371 23.4321 
348 1 48.256 41.6349 25.8074 
347 1 49.6597 44.127 25.7713 
351 1 33.8535 44.9449 23.4806 
354 1 33.8579 46.608 25.7733 
328 1 35.2396 44.1135 25.8088 
355 1 36.687 44.8897 23.4496 
358 1 36.7054 46.6343 25.8179 
359 1 39.5572 44.9397 23.5031 
362 1 39.5993 46.6546 25.8376 
363 1 42.4724 44.8977 23.453 
366 1 42.4836 46.5963 25.8171 
367 1 45.363 44.9183 23.4607 
343 1 46.8037 44.0753 25.8087 
370 1 45.3381 46.6107 25.763 
371 1 48.2459 44.9009 23.4137 
374 1 48.1903 46.6346 25.7157 
349 1 32.4832 47.4757 23.3957 
350 1 32.448 49.0907 25.7654 
375 1 33.779 49.9541 23.3934 
352 1 35.2688 47.4283 23.4119 
353 1 35.2268 49.1464 25.7667 
376 1 36.7214 49.9077 23.3834 
377 1 39.56 49.9766 23.4109 
357 1 38.18 49.0931 25.8462 
361 1 41.0676 49.1139 25.8019 
356 1 38.1425 47.4076 23.469 
360 1 41.0306 47.4216 23.4676 
365 1 43.905 49.1295 25.7112 
364 1 43.9035 47.4005 23.427 
378 1 42.4505 49.9311 23.3639 
369 1 46.7726 49.1225 25.6936 
379 1 45.3306 49.9382 23.3496 
368 1 46.7864 47.4027 23.3693 
372 1 49.6393 47.3712 23.3097 
380 1 48.1959 49.8791 23.3028 
373 1 49.6551 49.0964 25.6731 
385 1 42.4666 35.1251 28.352 
387 1 45.2852 35.1035 28.3698 
389 1 48.2131 35.0345 28.2698 
383 1 38.2049 37.6658 28.324 
384 1 41.0369 37.5757 28.3236 
386 1 43.887 37.5518 28.3169 
388 1 46.7683 37.5574 28.2804 
390 1 49.6297 37.5298 28.2101 
392 1 36.7635 40.0609 28.2718 
394 1 39.5687 40.0832 28.2079 
396 1 42.4443 40.0697 28.249 
398 1 45.3493 40.0677 28.2798 
400 1 48.235 40.0125 28.2105 
391 1 35.3338 42.5318 28.2414 
393 1 38.171 42.5558 28.2057 
395 1 41.063 42.5879 28.266 
397 1 43.8991 42.5303 28.2596 
399 1 46.8056 42.5297 28.2085 
401 1 49.6508 42.5219 28.2468 
403 1 33.8652 45.0462 28.1324 
405 1 36.7229 45.0362 28.2006 
407 1 39.6305 45.0227 28.1868 
409 1 42.4845 45.0261 28.2274 
411 1 45.3605 44.9912 28.1791 
413 1 48.2337 44.9808 28.1351 
381 1 49.6431 32.6735 28.2985 
402 1 32.4648 47.4985 28.1037 
404 1 35.2905 47.5239 28.1602 
416 1 36.7031 49.9601 28.1261 
406 1 38.1796 47.4852 28.1838 
408 1 41.0626 47.489 28.1943 
417 1 39.6454 50.0065 28.1903 
418 1 42.519 49.986 28.1515 
410 1 43.9004 47.4787 28.1517 
412 1 46.763 47.4828 28.095 
419 1 45.3631 49.9548 28.0804 
420 1 48.1856 49.9473 28.0548 
414 1 49.6105 47.4376 28.0402 
415 1 33.8281 49.9709 28.1172 
421 1 43.8758 34.3447 30.7668 
467 1 42.4548 35.1322 33.0845 
422 1 46.732 34.301 30.7138 
471 1 45.279 35.1153 33.1433 
458 1 46.8408 32.7773 33.0733 
423 1 49.597 34.2341 30.6136 
475 1 48.2107 35.2032 33.0407 
460 1 49.6238 32.6932 32.9646 
462 1 38.2224 37.6305 33.0047 
426 1 39.6029 36.8058 30.6771 
464 1 41.0395 37.6065 33.0474 
428 1 42.4644 36.7522 30.6997 
468 1 43.8654 37.6356 33.0434 
430 1 45.3542 36.7567 30.7278 
472 1 46.7603 37.6401 33.0464 
432 1 48.1969 36.7572 30.6347 
476 1 49.6129 37.6387 33.0026 
481 1 36.7412 40.1265 33.0104 
424 1 38.1525 39.2441 30.6365 
425 1 41.0302 39.2546 30.6672 
485 1 39.5922 40.082 33.0157 
427 1 43.8668 39.2535 30.6109 
489 1 42.4573 40.1038 32.997 
429 1 46.7615 39.2221 30.654 
493 1 45.3433 40.081 33.0292 
431 1 49.6065 39.2251 30.606 
435 1 36.7416 41.7096 30.6251 
479 1 35.3626 42.5472 32.9409 
437 1 39.5824 41.7226 30.5799 
486 1 41.026 42.5837 33.0286 
439 1 42.4398 41.7655 30.6589 
438 1 43.9082 44.1978 30.6183 
490 1 43.899 42.5655 33.0298 
441 1 45.3195 41.7249 30.6377 
440 1 46.7995 44.1743 30.571 
494 1 46.7643 42.5471 33.0351 
443 1 48.1589 41.7011 30.575 
446 1 33.8392 46.627 30.5072 
503 1 33.8764 45.0264 32.9371 
433 1 35.2843 44.1649 30.5426 
448 1 36.7283 46.7266 30.5447 
507 1 36.6733 45.0385 32.928 
434 1 38.1839 44.26 30.5978 
436 1 41.0159 44.2395 30.5989 
450 1 39.6076 46.7272 30.5629 
452 1 42.4391 46.6789 30.5955 
454 1 45.3261 46.6459 30.5311 
519 1 45.3373 45.0308 32.9761 
442 1 49.6609 44.2084 30.5384 
456 1 48.1783 46.6257 30.4993 
523 1 48.2028 45.0155 32.9938 
444 1 32.488 49.1179 30.4935 
501 1 32.4334 47.5166 32.8654 
527 1 33.8241 49.9686 32.9178 
445 1 35.2972 49.1528 30.5611 
504 1 35.2375 47.5058 32.889 
447 1 38.2017 49.1826 30.5065 
508 1 38.1384 47.5536 32.9287 
449 1 41.0729 49.1959 30.5784 
451 1 43.9439 49.144 30.5282 
516 1 43.9218 47.5136 32.9323 
453 1 46.7792 49.1798 30.5062 
520 1 46.7813 47.51 32.9423 
531 1 45.3549 49.9765 32.9448 
455 1 49.5734 49.0891 30.4398 
524 1 49.5998 47.4568 32.8852 
457 1 43.8339 34.2862 35.4677 
459 1 46.7681 34.2525 35.4406 
461 1 49.6278 34.2218 35.3883 
466 1 39.624 36.7936 35.39 
470 1 42.4791 36.7644 35.412 
474 1 45.3052 36.7704 35.4443 
478 1 48.1759 36.7768 35.4035 
463 1 38.1551 39.2523 35.3481 
465 1 41.0081 39.2339 35.4256 
469 1 43.9007 39.2387 35.4138 
473 1 46.7645 39.2708 35.4404 
497 1 48.1993 40.1185 33.0197 
477 1 49.6512 39.2722 35.4073 
484 1 36.7309 41.677 35.3816 
482 1 38.1778 42.5731 33.0033 
488 1 39.5889 41.7312 35.3998 
492 1 42.4612 41.7396 35.4472 
496 1 45.3459 41.7411 35.4305 
498 1 49.6391 42.5948 32.9756 
500 1 48.1793 41.7303 35.4358 
506 1 33.8144 46.5923 35.3076 
480 1 35.2728 44.1518 35.3192 
510 1 36.666 46.626 35.3024 
511 1 39.568 45.0745 32.9557 
487 1 41.0148 44.1965 35.3823 
483 1 38.1134 44.1544 35.392 
514 1 39.5848 46.6338 35.3238 
515 1 42.4729 45.0733 32.9648 
491 1 43.9012 44.2376 35.4193 
518 1 42.4728 46.7075 35.3214 
495 1 46.7536 44.1828 35.4294 
522 1 45.375 46.6553 35.3443 
499 1 49.6284 44.1844 35.4165 
526 1 48.2105 46.6256 35.3349 
502 1 32.4576 49.0666 35.2986 
505 1 35.2816 49.0734 35.3362 
509 1 38.1871 49.1004 35.347 
512 1 41.0179 47.5432 32.93 
513 1 41.0581 49.1201 35.2998 
517 1 43.9214 49.1503 35.3109 
521 1 46.7471 49.1254 35.3245 
525 1 49.6257 49.1227 35.2636 
543 1 42.4673 35.0955 37.8097 
547 1 45.3796 35.0167 37.7647 
534 1 47.1646 32.7175 37.808 
536 1 49.945 32.617 37.6612 
551 1 48.2961 35.1487 37.7528 
537 1 49.6638 34.093 40.1047 
538 1 38.2044 37.561 37.6894 
540 1 41.0499 37.5596 37.7633 
544 1 43.9054 37.5198 37.8389 
548 1 46.7469 37.5535 37.8439 
552 1 49.6663 37.63 37.8073 
557 1 36.7341 39.9849 37.7856 
561 1 39.5379 40.0363 37.8248 
565 1 42.4793 40.0191 37.8025 
569 1 45.3551 40.0607 37.8105 
573 1 48.2084 40.0337 37.8625 
555 1 35.3197 42.4837 37.7443 
558 1 38.1244 42.496 37.7826 
562 1 41.0045 42.4775 37.8323 
566 1 43.826 42.5297 37.8109 
570 1 46.7851 42.5541 37.8178 
574 1 49.6218 42.5441 37.8416 
579 1 33.8973 45.0364 37.7094 
583 1 36.7263 44.9798 37.7369 
587 1 39.5942 44.9341 37.7595 
591 1 42.4303 45.01 37.7611 
595 1 45.3012 44.9951 37.7856 
599 1 48.1804 45.0062 37.7943 
577 1 32.4672 47.4868 37.6747 
580 1 35.3072 47.4447 37.7314 
584 1 38.1768 47.4526 37.7421 
588 1 41.0228 47.4221 37.7133 
592 1 43.895 47.4866 37.6964 
528 1 36.7391 49.9697 32.9152 
596 1 46.7691 47.4765 37.7544 
529 1 39.6141 49.9933 32.9203 
600 1 49.6116 47.4918 37.6893 
608 1 48.1945 49.9838 37.6531 
533 1 43.9446 34.3006 40.1319 
613 1 42.5129 35.0097 42.4772 
535 1 46.7594 34.1696 40.1189 
615 1 45.3281 35.0171 42.5094 
609 1 46.728 32.6128 42.5263 
617 1 48.179 35.0122 42.5834 
610 1 49.5031 32.5049 42.4031 
611 1 38.2249 37.504 42.4466 
542 1 39.6287 36.7337 40.0791 
612 1 41.0101 37.472 42.5083 
546 1 42.5022 36.7063 40.1704 
614 1 43.9031 37.5258 42.5505 
550 1 45.4394 36.7161 40.2015 
616 1 46.7792 37.5087 42.6504 
554 1 48.2821 36.6635 40.1971 
618 1 49.6299 37.5185 42.5923 
620 1 36.6875 39.9991 42.4588 
539 1 38.1009 39.1359 40.1293 
541 1 40.9908 39.1873 40.1761 
622 1 39.5505 40.0028 42.5693 
545 1 43.9274 39.1862 40.1603 
624 1 42.4345 39.9658 42.5599 
549 1 46.8198 39.2078 40.2416 
626 1 45.3384 40.0051 42.6026 
553 1 49.6627 39.2059 40.2662 
628 1 48.2668 40.0193 42.6463 
619 1 35.1764 42.4359 42.4787 
560 1 36.6448 41.6241 40.1563 
621 1 38.0303 42.4474 42.5933 
564 1 39.5077 41.6634 40.2066 
623 1 40.9352 42.5041 42.606 
625 1 43.8324 42.4754 42.5894 
568 1 42.4073 41.6601 40.22 
572 1 45.3345 41.6974 40.1538 
627 1 46.7293 42.4606 42.5512 
576 1 48.2415 41.7202 40.2081 
575 1 49.6664 44.2131 40.183 
629 1 49.6631 42.4954 42.628 
631 1 33.7718 44.9582 42.432 
582 1 33.7949 46.626 40.1009 
556 1 35.2591 44.1049 40.1249 
633 1 36.5737 44.9377 42.576 
586 1 36.7019 46.6094 40.186 
559 1 38.0911 44.1643 40.2073 
563 1 40.9735 44.1096 40.2084 
590 1 39.5973 46.647 40.1782 
635 1 39.5036 44.9688 42.5485 
567 1 43.9052 44.1492 40.1735 
637 1 42.4084 44.9735 42.576 
594 1 42.4824 46.6066 40.1327 
598 1 45.2905 46.645 40.149 
571 1 46.7522 44.1886 40.2096 
639 1 45.2422 44.9618 42.5944 
602 1 48.1976 46.6832 40.1633 
641 1 48.1598 44.9804 42.564 
578 1 32.4289 49.0875 40.0011 
630 1 32.3435 47.4812 42.4365 
581 1 35.2534 49.1114 40.1133 
632 1 35.1574 47.4475 42.5005 
585 1 38.1477 49.1157 40.1456 
634 1 38.0417 47.4229 42.5544 
636 1 40.9651 47.4137 42.5708 
589 1 41.0348 49.1165 40.1597 
638 1 43.8357 47.4595 42.5722 
593 1 43.8754 49.1236 40.1379 
597 1 46.7123 49.1171 40.1137 
640 1 46.6578 47.4859 42.5067 
642 1 49.5508 47.4642 42.4649 
601 1 49.6107 49.1777 40.0797 
644 1 36.6519 49.9075 42.4987 
647 1 45.27 49.9997 42.532 
605 1 39.6394 49.9133 37.7323 
646 1 42.3836 49.9594 42.5066 
606 1 42.4398 49.9643 37.7173 
603 1 33.8943 49.9057 37.6733 
604 1 36.7643 49.9198 37.7423 
645 1 39.4946 49.916 42.5315 
643 1 33.6725 49.9402 42.4285 
607 1 45.3048 49.96 37.7364 
648 1 48.103 49.9326 42.3953 
532 1 48.2141 49.97 32.8993 
649 1 43.8997 34.2118 44.8967 
650 1 46.7698 34.0915 44.9359 
651 1 49.6319 33.9545 44.8643 
654 1 39.4967 36.7213 44.8232 
656 1 42.3856 36.6464 44.8474 
658 1 45.3069 36.6261 44.9342 
660 1 48.2345 36.5405 44.9603 
652 1 37.9957 39.1477 44.8564 
653 1 40.9161 39.1439 44.9137 
655 1 43.8766 39.156 44.9174 
657 1 46.7431 39.1477 44.9844 
659 1 49.6062 39.1348 45.0006 
663 1 36.4968 41.6616 44.8838 
665 1 39.4039 41.6337 44.9886 
667 1 42.3636 41.6271 44.975 
669 1 45.2776 41.646 44.9401 
671 1 48.1823 41.6648 44.9445 
674 1 33.6566 46.6139 44.8298 
661 1 35.0559 44.1226 44.8641 
676 1 36.5496 46.6407 44.9283 
662 1 37.9722 44.145 44.9213 
664 1 40.8951 44.1369 44.9696 
678 1 39.4612 46.6203 44.9296 
666 1 43.7822 44.1448 44.9373 
680 1 42.3508 46.6464 44.9264 
668 1 46.663 44.1344 44.9282 
682 1 45.287 46.6461 44.9649 
670 1 49.5633 44.1316 44.9485 
684 1 48.1813 46.6385 44.9146 
672 1 32.3377 49.1087 44.8168 
673 1 35.1511 49.1446 44.8275 
675 1 38.0235 49.1192 44.9098 
677 1 40.9635 49.1686 44.8929 
679 1 43.832 49.1326 44.8944 
681 1 46.723 49.0982 44.8818 
683 1 49.5929 49.1675 44.8472 
685 1 43.7402 34.2958 49.5954 
695 1 42.4449 34.9903 47.172 
686 1 46.8739 32.5077 47.235 
687 1 46.6525 34.0954 49.6905 
699 1 45.3238 34.9235 47.2651 
688 1 49.6565 32.4852 47.2764 
689 1 49.5376 33.9696 49.7941 
690 1 38.0619 37.5427 47.1953 
694 1 39.4112 36.7268 49.5818 
692 1 40.904 37.3957 47.1937 
698 1 42.2887 36.6841 49.5976 
696 1 43.8132 37.4381 47.2714 
702 1 45.2191 36.6696 49.6368 
700 1 46.7008 37.4466 47.3172 
703 1 48.1942 34.9313 47.336 
706 1 48.0994 36.56 49.665 
704 1 49.6024 37.4521 47.3282 
691 1 37.9377 39.15 49.6703 
709 1 36.6191 40.003 47.2205 
693 1 40.842 39.1602 49.6143 
713 1 39.4706 39.9246 47.2692 
697 1 43.704 39.1426 49.6677 
717 1 42.3713 39.953 47.2902 
701 1 46.6808 39.1267 49.6926 
721 1 45.2453 39.9747 47.3592 
705 1 49.5662 39.0793 49.7051 
725 1 48.1408 39.9528 47.3637 
707 1 35.1353 42.4858 47.2 
712 1 36.5617 41.6123 49.6669 
710 1 37.959 42.444 47.3027 
716 1 39.4225 41.6708 49.6405 
714 1 40.8907 42.5045 47.2829 
720 1 42.3242 41.6996 49.7014 
718 1 43.7721 42.5086 47.2686 
724 1 45.2139 41.6716 49.6932 
722 1 46.6616 42.475 47.2931 
728 1 48.1173 41.6699 49.6978 
726 1 49.5924 42.451 47.3398 
731 1 33.6911 44.9748 47.2386 
734 1 33.7482 46.5989 49.5949 
708 1 35.1728 44.1077 49.6083 
711 1 38.0063 44.1672 49.6357 
735 1 36.5251 44.9888 47.2683 
738 1 36.5965 46.6634 49.6361 
715 1 40.8878 44.1842 49.6747 
739 1 39.4102 44.9928 47.3023 
742 1 39.4228 46.6688 49.6244 
719 1 43.8006 44.1781 49.6718 
743 1 42.3194 44.9992 47.2817 
746 1 42.3441 46.6693 49.6364 
723 1 46.6954 44.1657 49.6473 
747 1 45.1922 44.9761 47.2863 
750 1 45.2432 46.6698 49.675 
727 1 49.5843 44.1473 49.6836 
751 1 48.0912 44.9511 47.2869 
754 1 48.1267 46.6235 49.6565 
729 1 32.3047 47.4895 47.2612 
730 1 32.386 49.0515 49.683 
732 1 35.1053 47.4721 47.2756 
733 1 35.1489 49.1271 49.6135 
736 1 37.9813 47.4943 47.2639 
737 1 38.0185 49.1631 49.611 
741 1 40.9106 49.1218 49.673 
740 1 40.8718 47.4664 47.3044 
909 1 39.4702 49.9416 56.7975 
744 1 43.7741 47.4776 47.3054 
745 1 43.814 49.1709 49.6446 
748 1 46.6941 47.4406 47.3063 
749 1 46.7182 49.1468 49.6579 
829 1 49.5879 49.0368 54.3914 
752 1 49.5829 47.4708 47.2675 
753 1 49.5512 49.1018 49.6706 
771 1 42.2785 35.0793 51.9788 
775 1 45.1176 34.9698 52.0245 
762 1 46.5212 32.5943 52.0489 
764 1 49.2612 32.4796 52.224 
766 1 37.9625 37.5384 52.0205 
768 1 40.7883 37.4875 51.9735 
772 1 43.7143 37.458 51.9867 
776 1 46.6601 37.4579 52.0396 
779 1 48.0245 34.9962 52.0803 
780 1 49.5258 37.48 52.0808 
785 1 36.5844 40.0003 52.0674 
789 1 39.4101 40.0049 51.9967 
793 1 42.2807 39.9559 51.9955 
797 1 45.194 39.971 51.9916 
801 1 48.1313 39.9464 52.0253 
783 1 35.2072 42.4982 52.0284 
786 1 38.0056 42.4477 52.0499 
790 1 40.8573 42.5063 52.0018 
794 1 43.7498 42.4914 52.052 
798 1 46.649 42.4244 52.0233 
802 1 49.563 42.4385 52.0406 
807 1 33.7742 44.9887 51.956 
811 1 36.5948 44.9473 51.9768 
815 1 39.4426 44.969 51.9814 
819 1 42.3565 45.0065 51.9982 
823 1 45.2418 44.9444 52.0551 
827 1 48.1015 44.8986 52.038 
805 1 32.3818 47.4601 52.0751 
910 1 42.3201 49.9454 56.8263 
892 1 40.8913 47.4574 56.7489 
808 1 35.1584 47.4664 51.9979 
812 1 38.0108 47.439 52.0218 
816 1 40.9089 47.4366 52.0028 
825 1 46.6765 49.0669 54.3791 
820 1 43.8295 47.4426 52.0144 
821 1 43.795 49.1154 54.3863 
824 1 46.7004 47.4175 52.0153 
809 1 35.1619 49.1559 54.3749 
828 1 49.5718 47.3587 52.0237 
817 1 40.9028 49.1401 54.3872 
761 1 43.8214 34.1904 54.3576 
763 1 46.7024 34.109 54.4428 
855 1 48.1237 34.9902 56.8868 
765 1 49.5251 34.1427 54.4742 
813 1 38.0234 49.1329 54.3976 
770 1 39.3897 36.7031 54.4681 
774 1 42.2325 36.6057 54.33 
778 1 45.1519 36.6211 54.4022 
782 1 48.0644 36.6094 54.448 
767 1 37.9405 39.1245 54.4583 
911 1 45.1883 49.8954 56.7736 
769 1 40.8184 39.1152 54.3599 
773 1 43.7194 39.0981 54.3742 
777 1 46.5978 39.1349 54.3892 
781 1 49.5061 39.124 54.4271 
784 1 35.1327 44.1493 54.4844 
788 1 36.4521 41.6329 54.4591 
792 1 39.3819 41.6253 54.4357 
796 1 42.2833 41.5874 54.3671 
800 1 45.1523 41.6088 54.429 
804 1 48.0608 41.5889 54.373 
810 1 33.7646 46.6509 54.4552 
806 1 32.3858 49.1104 54.4703 
814 1 36.5692 46.6477 54.3881 
787 1 37.9729 44.1512 54.3806 
818 1 39.4372 46.6212 54.3756 
791 1 40.8768 44.092 54.3579 
795 1 43.7565 44.0809 54.4012 
822 1 42.3288 46.6087 54.3738 
799 1 46.6964 44.0793 54.4215 
826 1 45.2344 46.574 54.3711 
803 1 49.5983 44.1176 54.4088 
830 1 48.1314 46.6192 54.3821 
888 1 38.036 47.4564 56.7939 
852 1 46.6591 37.4302 56.7484 
859 1 35.1667 42.5345 56.885 
856 1 49.5416 37.4382 56.8301 
862 1 37.9799 42.4935 56.8103 
866 1 40.8903 42.4514 56.7419 
870 1 43.7276 42.4101 56.7814 
878 1 49.5524 42.4208 56.77 
887 1 36.5704 45.0163 56.8099 
903 1 48.1125 44.9071 56.7417 
881 1 32.396 47.5667 56.826 
891 1 39.4485 44.9561 56.7662 
848 1 43.7837 37.4403 56.7309 
895 1 42.3189 44.965 56.778 
899 1 45.1832 44.9282 56.7396 
908 1 36.6084 49.9655 56.7922 
883 1 33.7734 45.0267 56.855 
896 1 43.7674 47.4462 56.7668 
844 1 40.8697 37.4119 56.7622 
835 1 45.2574 49.9356 51.9898 
865 1 39.4559 39.9965 56.7921 
869 1 42.3129 39.9392 56.7452 
877 1 48.1129 39.9463 56.768 
884 1 35.16 47.5131 56.8217 
861 1 36.5998 40.0474 56.8741 
842 1 38.0435 37.5286 56.8644 
900 1 46.6576 47.4245 56.7628 
904 1 49.5482 47.3839 56.7853 
847 1 42.48 35.009 56.7342 
851 1 45.2673 34.9389 56.8434 
912 1 48.1063 49.874 56.8015 
838 1 46.7089 32.5514 56.8684 
873 1 45.2055 39.9589 56.7235 
836 1 48.1506 49.9051 52.032 
874 1 46.6364 42.4406 56.7489 
759 1 45.2367 49.9814 47.2955 
831 1 33.6954 49.946 52.0707 
755 1 33.6684 49.9585 47.2427 
760 1 48.1158 49.9198 47.2753 
833 1 39.4428 49.9606 52.0398 
834 1 42.3634 49.9385 52.0461 
756 1 36.5228 49.9789 47.2908 
832 1 36.599 49.9361 51.9821 
840 1 49.518 32.5793 56.9163 
758 1 42.3138 49.9403 47.2771 
757 1 39.4386 49.9535 47.2604 
837 1 43.866 34.1638 59.1389 
1006 1 45.2836 36.7704 68.6201 
839 1 46.7415 34.0971 59.2732 
1002 1 42.386 36.7127 68.6795 
841 1 49.5467 34.1365 59.2659 
1140 1 48.1912 49.8605 71.177 
846 1 39.396 36.7376 59.2248 
1020 1 39.5166 41.6666 68.7924 
850 1 42.3348 36.5577 59.1122 
1031 1 49.5877 44.1289 68.6966 
854 1 45.2105 36.616 59.1277 
1015 1 38.0299 44.1477 68.7915 
858 1 48.0892 36.7021 59.1842 
1041 1 38.1098 49.0907 68.7766 
843 1 38.0198 39.1943 59.2355 
845 1 40.8708 39.0917 59.1602 
1016 1 36.6083 41.6809 68.8255 
849 1 43.752 39.0985 59.0982 
1012 1 35.1755 44.1421 68.7775 
853 1 46.6424 39.1359 59.1612 
993 1 49.6142 34.0834 68.7448 
857 1 49.5714 39.1782 59.1133 
1009 1 49.6032 39.1292 68.6602 
860 1 35.1607 44.1719 59.2294 
864 1 36.5384 41.7029 59.2351 
863 1 38.0177 44.1502 59.2122 
1049 1 43.8779 49.0581 68.7804 
1034 1 32.4203 49.1211 68.7842 
868 1 39.448 41.6364 59.1678 
867 1 40.9558 44.1175 59.1564 
1058 1 48.1714 46.5842 68.7742 
872 1 42.3287 41.5892 59.1498 
871 1 43.7958 44.1072 59.1497 
1054 1 45.3256 46.615 68.7339 
876 1 45.2243 41.6599 59.1702 
875 1 46.6653 44.1178 59.1623 
1045 1 40.9889 49.0209 68.7497 
880 1 48.1193 41.6324 59.1748 
1050 1 42.4228 46.5912 68.777 
886 1 33.7375 46.7342 59.2151 
890 1 36.566 46.6494 59.2087 
1046 1 39.5026 46.6062 68.7519 
894 1 39.4862 46.5937 59.1664 
1057 1 49.5767 49.0736 68.7609 
898 1 42.3715 46.6016 59.1352 
1032 1 48.1839 41.621 68.6805 
902 1 45.2498 46.5775 59.138 
1028 1 45.299 41.6553 68.6552 
879 1 49.5549 44.0992 59.1174 
906 1 48.1136 46.5438 59.1307 
1042 1 36.6166 46.6374 68.821 
882 1 32.3203 49.1817 59.2677 
885 1 35.1568 49.1899 59.2018 
1005 1 46.7431 39.1826 68.6624 
1027 1 46.7367 44.1055 68.7036 
1038 1 33.7618 46.6371 68.8195 
1001 1 43.8218 39.2319 68.6662 
889 1 38.0487 49.1197 59.1825 
1053 1 46.7318 49.0875 68.7501 
893 1 40.9292 49.1067 59.1808 
997 1 40.9701 39.2186 68.7408 
998 1 39.5557 36.819 68.7343 
897 1 43.7827 49.0736 59.1568 
1024 1 42.3984 41.7142 68.7229 
1023 1 43.8602 44.1461 68.7367 
1019 1 40.9145 44.168 68.7436 
901 1 46.6738 49.0598 59.153 
995 1 38.0894 39.2076 68.7253 
905 1 49.5671 49.0321 59.1874 
1010 1 48.1936 36.651 68.6967 
1037 1 35.2471 49.1196 68.7848 
923 1 42.3966 35.0548 61.5511 
927 1 45.2307 35.0149 61.5507 
914 1 46.7502 32.6504 61.6836 
916 1 49.5488 32.6065 61.6603 
931 1 48.1025 35.0598 61.6049 
918 1 38.1485 37.5332 61.609 
920 1 40.9901 37.512 61.5289 
924 1 43.796 37.5186 61.5119 
928 1 46.6287 37.5032 61.5496 
932 1 49.5013 37.5194 61.5527 
937 1 36.6858 40.0658 61.5589 
941 1 39.509 40.0011 61.5252 
945 1 42.3871 40.006 61.5129 
949 1 45.2343 39.9934 61.4932 
953 1 48.0832 39.9531 61.5332 
935 1 35.2128 42.547 61.6307 
938 1 38.0739 42.5288 61.6096 
942 1 40.9306 42.5045 61.5474 
946 1 43.7765 42.4997 61.5244 
950 1 46.6661 42.5099 61.5378 
954 1 49.5742 42.455 61.5429 
959 1 33.8251 45.0708 61.591 
963 1 36.6237 45.0189 61.6603 
967 1 39.5034 44.9884 61.5715 
971 1 42.3501 44.9972 61.5616 
975 1 45.2393 44.9578 61.5084 
979 1 48.1053 44.9614 61.506 
1112 1 35.2372 47.4656 71.2104 
957 1 32.4171 47.5859 61.6199 
960 1 35.1922 47.5554 61.6052 
964 1 38.0513 47.5158 61.5758 
1089 1 36.7355 40.0031 71.184 
968 1 40.8982 47.5046 61.5609 