ITEM: TIMESTEP
70000
ITEM: NUMBER OF ATOMS
5538
ITEM: BOX BOUNDS pp pp pp
0.0372549 99.9627
0.137726 99.8623
-1.01463 101.015
ITEM: ATOMS id type x y z c_csym c_2[1] c_2[2] c_2[3] c_2[4] c_2[5] c_2[6] 
11 1 40.1614 30.9233 -0.268612 98.7485 -214410 -261044 -368968 -84623.8 -359885 -98980 
87 1 41.6489 31.8188 2.10722 44.067 429283 -111070 -488421 -280105 -220586 -110894 
1 1 43.3068 30.8509 -0.384488 32.0846 -61493.6 -395543 945.968 -329042 384939 160389 
15 1 44.8538 31.5386 2.4761 18.2507 662827 359299 807855 -9254.7 514114 83747.7 
3 1 46.469 30.8125 -0.091705 34.3075 -32877.7 -15317.6 124603 53468.8 14432.5 27787.8 
19 1 47.9945 31.8596 2.5141 12.5095 496760 -261724 560751 -223573 -123673 2752.43 
5 1 49.6336 30.9562 -0.176109 30.4304 -151455 -140899 -316117 -101707 -94605.5 221378 
1375 1 36.8407 36.1604 -0.435318 22.6138 88613.6 -28992.9 -49352.6 -63564.7 342165 167576 
10 1 38.6033 33.5493 -0.325843 31.4895 -150402 48175.9 -47272.3 -245161 95573.7 -164225 
6 1 38.3908 37.0875 2.48942 12.6826 364032 -412083 403291 596322 194694 261811 
8 1 39.9838 34.581 2.22366 19.3947 302920 -215763 -239598 4877.25 -159650 458265 
9 1 40.0833 36.2907 -0.20343 9.12022 417511 -519903 98612.8 -13494.5 54551.2 441999 
33 1 41.6651 37.1393 2.54545 9.53288 155549 -431270 107008 -341225 106361 81630.3 
14 1 41.7129 33.5579 -0.404148 10.1553 -318160 74837.9 -48615.3 -304204 21136.5 170538 
18 1 44.7759 33.4497 -0.111044 9.32161 16554.5 247522 590068 -6260.57 -85844.6 -277809 
12 1 43.2634 34.4295 2.39995 9.63192 228292 204802 146830 -303231 414417 39186.5 
13 1 43.2662 36.2593 -0.19234 9.88349 74346.3 164024 522340 90269.3 14081.2 16023.8 
37 1 44.7447 37.1102 2.5409 8.93651 18704.8 -549609 69877 -48281.5 80482.5 -372726 
22 1 47.9798 33.5723 -0.139768 8.34664 357975 252129 175791 56789.6 -112510 160529 
16 1 46.3268 34.4295 2.49171 8.80438 88109.4 214889 211806 281584 -65348.6 -73671.2 
17 1 46.4103 36.2598 -0.0308916 9.31516 32923.1 -283558 315277 152054 9482.96 138339 
41 1 48.1194 36.997 2.56278 8.88664 233080 108597 -204231 143984 -217854 -30839.2 
21 1 49.6424 36.1814 -0.0514659 9.54682 -11253.8 -284877 -316978 67686.9 17734.1 20826.6 
20 1 49.6702 34.3329 2.44115 9.30317 -265982 -490332 -64045.2 -74536.2 163647 63698.2 
25 1 36.8374 39.7586 2.47064 15.3783 281744 -8025.42 644303 198949 125786 -37132.9 
1396 1 35.4086 38.862 -0.364963 21.1025 -159248 14653.5 -164156 -227234 45494.6 375908 
1392 1 33.6232 41.6599 -0.204852 24.0936 -285835 -77933.4 108163 -140126 296719 6637.04 
7 1 38.4995 38.8359 -0.0742432 8.89267 -96852.8 48138.2 -24057.9 183761 163160 24758.2 
29 1 40.0304 39.9038 2.53121 8.46928 118968 406013 123619 238575 -76701.9 66337.4 
36 1 41.6374 38.8934 -0.1595 8.80278 27344.3 -332930 52119.2 -195595 -202700 -231286 
34 1 43.0978 39.8165 2.50678 8.61814 -7971.99 -265604 480942 -211212 -48095.6 87893.1 
40 1 44.8943 38.991 -0.12534 9.30947 -44169.9 -768705 -38308.1 23197.1 81973.2 -172707 
42 1 49.5889 39.8842 2.48001 10.101 410231 198595 164029 -52025.5 -361.058 5299.86 
38 1 46.4197 39.7877 2.50857 9.39656 354829 361205 284926 -82739 -78882.4 39447 
44 1 48.0506 38.8751 -0.0819954 9.50839 -54702.8 204869 -246461 -60209.8 -23815.9 -176379 
1418 1 32.1879 44.3224 -0.22291 22.6772 -310668 7524.68 104151 -118192 134292 35138.1 
28 1 36.7271 41.6544 -0.0500788 8.6759 321293 225935 244389 125831 -49928.8 139471 
47 1 33.5705 45.2245 2.6031 14.1388 408198 236307 747206 176032 125146 15876.1 
23 1 35.2784 42.4972 2.60033 15.899 104310 117048 441123 15353.6 188300 -12518.8 
24 1 35.2212 44.3585 -0.0548583 9.46207 235138 72789.4 340199 229856 -110364 -140126 
51 1 36.7694 45.2501 2.52136 9.49352 753514 188190 518776 102175 -52770.2 -108653 
32 1 39.9217 41.6658 -0.0612669 8.58223 621674 205616 332556 7826.67 -20455.7 123551 
26 1 38.3913 42.5352 2.58118 9.4636 91052.1 -88198 23609 291904 136137 -180559 
27 1 38.5052 44.4538 -0.0603419 9.59016 71316.8 -7587.18 383425 -102022 -141432 -163387 
55 1 40.0034 45.2917 2.52512 9.58215 313933 53650.2 259043 88961.7 -106385 -94960.5 
31 1 41.6391 44.3292 -0.0619891 9.13127 -30590 630854 608711 -25832.9 97561 65549 
30 1 41.6081 42.6478 2.58584 8.9902 -88676.7 -316251 189524 43877.5 -6778.43 37660 
35 1 43.2196 41.5893 -0.0983299 8.30186 266833 14313.1 253024 237119 -100882 -63300 
59 1 43.2394 45.3226 2.6981 9.96242 291502 93414.1 259598 -149333 5630.66 -52027.5 
63 1 44.7328 42.4998 2.69513 10.0104 148072 274517 292998 45921.8 -61712.1 -34001.1 
66 1 44.7938 44.5104 -0.134082 9.58295 -481905 199084 242088 -53866.5 28719.6 43823.4 
39 1 46.3553 41.6978 -0.102725 9.94508 -165852 -101230 222112 -403176 87411.5 23529.9 
43 1 49.4888 41.8215 0.00126272 8.82221 415976 501083 417645 62952.8 -90240.8 283888 
67 1 47.9496 42.5939 2.7219 9.73057 172816 -116498 72385.2 265920 -113117 -236363 
64 1 46.408 45.3245 2.62949 9.1261 114553 222546 217075 302568 -36902.6 -39988.4 
70 1 47.8318 44.4797 -0.0107042 8.99996 -21696.7 -158095 282518 150247 84508.8 -250549 
68 1 49.6238 45.3906 2.60988 9.78088 -119584 -61928.9 -37888.8 35270.7 229946 -224005 
45 1 32.1833 47.9175 2.48239 17.0567 -98572.4 -31681.4 921953 402962 -1520.06 29263.1 
1414 1 30.6169 47.0654 -0.299932 61.6711 1790.93 395400 -196652 -28235.1 167075 -59851 
217 1 46.4052 48.9611 12.9249 9.57958 211321 79085.3 422108 33741.1 72122.6 -46207.6 
50 1 33.7186 47.0884 -0.180439 9.80858 66467.1 418820 479513 211916 -11779.9 -53045.2 
48 1 35.2467 48.019 2.52886 9.10203 108824 450875 258316 203928 122355 6199.82 
54 1 36.8168 47.1999 -0.0990362 9.32189 -17266.9 -16604.4 -21989.1 297886 -187146 -61491.2 
220 1 49.4895 47.1586 10.3729 9.15534 -16695.3 -270227 360693 157373 269683 26793.3 
52 1 38.4076 48.0741 2.62153 10.0499 168282 201205 246899 88652.3 -256663 -243607 
58 1 39.9741 47.1631 -0.137746 9.2854 186064 22847.2 271525 -354106 -207014 -84719.9 
56 1 41.5973 48.0852 2.45579 9.88651 166053 49467 297637 -148669 66642.8 141366 
46 1 32.2805 49.9004 -0.133569 14.2273 -237486 673091 79507 104649 129577 -306789 
221 1 49.5705 49.0869 13.1349 9.01061 -73603 41891.2 83905.8 -199770 76141.9 158955 
62 1 43.1798 47.2395 -0.161506 9.68227 94573.7 -177114 148467 271441 145001 -228696 
60 1 44.8002 48.1102 2.53335 9.67485 -54591.8 -42880.4 378941 192182 162612 -3884.39 
216 1 46.3581 47.1321 10.406 9.54147 2296.77 261343 192590 -19695.2 -35507.9 -184304 
69 1 49.5175 47.2271 -0.0480372 8.94013 286477 168394 254283 17482.8 -55962.2 -224817 
65 1 46.3106 47.2325 -0.0262371 9.56569 -24127.6 -205259 120294 31340.2 117525 -115165 
76 1 47.9517 48.1517 2.5815 9.77539 -285346 267617 -52217.6 5664.09 -168432 30583.3 
77 1 43.5742 32.4438 8.02109 35.1771 86474.7 271526 11207.7 -362472 -53757.9 -243070 
81 1 49.6804 32.5711 7.77426 9.18586 -665904 613120 -126171 164800 -66071.9 310737 
4 1 49.6463 30.724 5.1446 28.2929 -207287 -482728 543919 292918 -215886 -175692 
2 1 46.6349 30.8129 5.17656 39.1661 -551852 -424596 233020 -67698.8 64907.7 -77734.5 
78 1 47.9365 29.8544 7.80058 46.5521 142551 -172867 -420913 147910 -295216 -235625 
79 1 46.6643 32.599 7.75873 11.8743 -414423 234072 244810 -123436 -27481.2 -1458.9 
82 1 37.1379 36.1997 5.19193 47.3246 -569519 -395344 -498040 -4733.46 51124.6 -25078.5 
84 1 40.1346 36.1971 5.02232 17.1078 -429809 -494828 335180 -128044 55353.2 12607.3 
86 1 38.6118 35.2649 7.71431 32.3005 -219055 -420946 288159 -272892 -19157.1 -29004.8 
91 1 44.9688 33.4145 5.22085 8.99524 359922 3277.18 1.03858e+06 -105702 33728 199534 
90 1 41.7389 35.2494 7.73557 12.135 222240 518717 611922 -270680 148606 -304336 
88 1 43.2761 36.0948 5.12719 8.8595 -177006 -157332 134751 -61585.3 162368 -56762.7 
94 1 44.8658 35.2626 7.88537 8.98427 78374.6 282821 217206 -178328 48019.8 -178674 
95 1 48.2412 33.3826 5.18293 1.00171 30734.1 -260514 -43119.2 -103629 59222.1 2398.81 
92 1 46.44 36.0852 5.16298 0.267095 215432 55394.2 498508 -260170 13762.6 -71158.3 
96 1 49.6636 36.151 5.05088 0.336317 43307.5 61095.5 145745 -28411.4 -221291 189488 
98 1 48.1409 35.3598 7.82396 8.62964 58016.5 -52250.9 367584 -27268.7 -47664.6 -62906.3 
83 1 36.8989 37.8607 7.81162 15.1153 -139218 250372 -549355 -5912.22 55855.4 -153133 
101 1 35.5229 38.823 5.28651 38.7182 -343503 -273894 -130157 -376302 -181665 75841 
104 1 35.3585 40.7338 7.83141 13.8751 -191496 -420733 210834 -343710 -266521 115340 
102 1 36.8824 41.4774 5.1224 0.532709 -193566 -90049.7 216227 -99941.4 3418.99 106195 
85 1 40.0402 37.842 7.76485 8.26299 283211 -337633 609092 -54579.3 19884.5 46812.1 
105 1 38.5413 38.873 5.12298 0.257069 -475404 -480960 500625 -90166.8 -19728.7 -169534 
108 1 38.5224 40.5704 7.7909 8.8817 70175.1 497744 317932 136309 165267 90607 
106 1 40.0535 41.5576 5.22338 0.1412 135380 39602.8 302783 -31460.1 98392.3 -70618.9 
112 1 41.5754 40.6434 7.87526 9.6896 -371758 29892.3 209239 273111 -121489 194843 
109 1 41.6333 38.7983 5.16347 0.277357 -335150 -125257 -228041 37562.1 -258014 -70096.6 
89 1 43.2297 38.0271 7.64157 9.64751 188650 -41566.6 307974 27794.2 -101943 36680.3 
113 1 44.8051 38.8017 5.10204 0.240603 46519.4 4014.95 -104685 -100913 188483 -89161.8 
116 1 44.7582 40.6692 7.7352 9.12242 -309336 -484572 -472820 -37045.3 48224.5 402758 
93 1 46.394 37.9453 7.78953 9.37382 -6492.83 -457257 149976 -162871 -3276.61 -88332.6 
117 1 47.971 38.8377 5.14881 0.144386 351811 -24803.9 281841 -136926 -111761 -138429 
120 1 47.9325 40.6046 7.77655 9.53621 328888 -57079.3 -75401.3 41370.2 62386.1 209454 
97 1 49.6846 37.9978 7.72548 9.37043 -39704.8 -381926 428983 133118 69003.8 -31345.3 
118 1 49.4891 41.5736 5.2025 0.551278 433673 438759 41221.5 72060.4 -159085 176988 
123 1 32.2906 44.4141 5.30356 38.1562 -198840 273600 -573525 -169630 139124 -181162 
99 1 33.8425 41.5867 5.28293 43.9845 -293468 176747 -334994 -275348 -78922.6 132928 
100 1 33.6587 43.2807 7.92874 15.1697 -126378 -25391.1 499413 111120 -50795.7 -118173 
103 1 36.7919 43.3282 7.84779 9.26053 608459 123913 432904 -223764 -62243.9 169546 
127 1 35.315 44.3009 5.22458 0.241525 -118957 50810.5 337807 -208645 -147098 -284152 
107 1 40.0638 43.3969 7.90048 9.62033 665349 330733 99377.4 145898 133087 -150488 
131 1 38.4879 44.3029 5.18398 0.188648 62101.3 469886 449973 112276 6374.65 -215431 
135 1 41.6131 44.3948 5.18071 0.113368 -289923 313931 157683 -117389 187599 -185527 
110 1 43.2144 41.5813 5.24108 0.155087 -446195 372540 88377.9 -89155 -35756 220456 
111 1 43.3173 43.4142 7.88911 9.24835 62458.1 -38988.9 -270411 -91080.4 -41234.4 -75523.3 
139 1 44.7163 44.3731 5.22762 0.277599 -44853.3 -232953 -505417 30543.6 -106209 -208024 
114 1 46.2745 41.5834 5.24515 0.419235 -317007 360452 -312111 26066.2 29229.4 142126 
115 1 46.4565 43.4331 7.77021 9.26584 -593113 -24260.2 174870 59720 27293.1 -27046.1 
119 1 49.4922 43.5813 7.81265 9.57421 43682.9 695353 613556 -115397 -57345.4 10819.8 
143 1 48.0151 44.4267 5.11688 0.422431 378610 345694 -505497 191401 -108775 -165194 
121 1 30.716 47.1243 5.23693 52.3875 -353333 -502839 -91071.9 -161692 -83656.9 34824.1 
126 1 32.1364 46.0824 7.83643 14.598 -239903 381772 326218 -117133 -228024 -325283 
122 1 30.6992 48.8643 7.78957 31.0723 -625727 339386 19930.9 -144803 62548.5 -37230.4 
226 1 41.5803 49.8785 10.3558 9.48273 182322 323284 -23334.2 91907.5 -89482.9 -31983.3 
125 1 33.6723 48.9247 7.87538 9.91003 -305539 638790 316740 255319 64513.6 -52488 
124 1 33.7339 47.163 5.13322 0.516688 -551263 300443 331856 -87455.2 -132634 -19105.7 
128 1 36.7536 47.0452 5.2287 0.487558 -148083 100462 125470 67132.6 -170015 100137 
129 1 36.7827 48.9259 7.78618 9.29314 183850 225260 58511.4 152367 -87626.9 99935.3 
130 1 35.1633 46.0753 7.78968 8.28679 284857 608317 -22686.9 130055 194482 -31845.7 
132 1 40.0217 47.1896 5.15051 0.167781 184997 139879 151997 134634 -109567 97757.2 
133 1 39.9901 48.9258 7.8223 9.81574 222678 39675.6 303914 -35152.7 11703.1 -195150 
134 1 38.3885 46.2161 7.70835 9.45834 300628 135780 -39597.7 18057.6 -13219.1 -117901 
138 1 41.6479 46.209 7.78299 9.47498 327446 228445 165006 -354.384 -34252.3 -7286.51 
136 1 43.1992 47.1789 5.17448 0.109426 190422 174964 64504.9 18022 143269 -183896 
137 1 43.2291 49.0022 7.79236 9.55551 -42430.9 311900 122109 22289.1 62902.3 -138966 
142 1 44.808 46.1208 7.75946 8.86536 -636832 132641 -236020 -209943 181153 79787.4 
222 1 47.9532 46.2559 12.9994 9.49653 145281 104281 -16640 171229 62381.9 10430.7 
140 1 46.3429 47.1386 5.26275 0.421413 294359 296916 -270236 -47171.8 -151912 3110.19 
141 1 46.3193 49.086 7.72751 9.9992 -133605 122952 -48991.3 83852.4 -137321 -92970.8 
144 1 49.6346 47.2954 5.0549 0.718915 501928 154037 -375247 31877.9 -92812 -199908 
145 1 49.5313 48.9779 7.68662 9.40938 156912 -2480.83 270996 166682 157920 -39630.8 
146 1 47.8118 46.3016 7.76066 8.84268 -361936 8681.42 116716 89443.2 -257116 -13518.2 
153 1 43.4405 32.4987 13.0583 19.9499 -535706 107262 562031 -217653 -161622 55813.1 
156 1 49.6243 30.6753 10.1535 22.6628 382479 -41234.7 -485798 -10674.6 -68459.6 263371 
157 1 49.5731 32.4268 12.9707 11.5259 253080 723597 955598 66397.7 -173948 83453.1 
155 1 46.4605 32.5529 13.0945 13.3455 -396701 179751 358537 241461 -171099 138176 
154 1 46.4492 30.7364 10.3003 41.1744 327984 -104484 130496 -5409.13 313668 59410.9 
158 1 37.1062 36.1087 10.3829 41.0118 -529457 -498628 278304 21122.2 -119377 174979 
160 1 40.1166 36.121 10.5112 12.9069 220572 -56962.8 840287 -157815 -55151.4 20962.5 
162 1 38.4613 35.2185 13.0923 36.5496 340234 -62840.8 520088 51983.5 -11445.2 58601.4 
166 1 41.7656 35.2283 13.1258 12.3158 549677 624870 507960 -277601 53419.3 -4506.3 
163 1 41.938 33.3705 10.4878 29.2581 334418 112914 221467 -209432 42521.5 22041.5 
167 1 45.0828 33.4744 10.5169 11.2575 64499 -582462 -193628 -31908.5 -142395 2641.55 
164 1 43.3422 36.1176 10.4318 9.3623 283563 486828 272954 78984.8 221294 -268890 
170 1 44.9587 35.2118 13.0217 9.1247 -98366.5 -200003 -200791 78450.6 71933 -145105 
171 1 48.14 33.4541 10.4037 9.21752 -91671.8 327569 -63644 93493.3 -87509.5 -63164 
168 1 46.5071 36.145 10.4065 8.98541 -172844 -336201 -589876 -206230 -153309 -87546.8 
174 1 48.0541 35.2951 12.9008 9.07813 -481644 219814 -329563 48875.3 -48292.2 -123583 
172 1 49.6854 36.1463 10.4059 8.8577 -80333.6 -74743.3 -351310 42167.6 33004.7 -135609 
177 1 35.4226 38.7142 10.2291 30.7881 -279164 268062 -120081 -4029.88 368909 -70321.8 
159 1 36.9063 37.8729 13.1268 15.4394 29978.8 301882 1.2693e+06 -283247 -207388 -52701.6 
180 1 35.296 40.6268 13.0667 16.2242 -273190 448605 633950 -16802.2 -89816 20242.9 
178 1 36.8689 41.5471 10.4269 9.16339 60118.3 244531 30966.2 -7324.82 -90698.8 -19146.8 
175 1 33.846 41.589 10.5545 21.8523 -347281 164333 -326820 -50090.6 -161489 141463 
161 1 40.0132 37.9644 13.0778 9.30429 35119 243323 -278638 75733.8 -153431 -246246 
184 1 38.3894 40.6307 13.1641 9.78683 362127 47363.4 326152 353261 -4727.2 241058 
181 1 38.4708 38.8042 10.4229 9.24787 -347710 180332 567838 3309.43 -171574 117619 
185 1 41.5372 38.856 10.4213 8.96486 141074 94069 207393 44608.4 -99508.1 149550 
182 1 40.0227 41.6264 10.4963 9.55595 14645.3 -114921 16165.2 354425 -170210 193467 
188 1 41.6219 40.7089 12.9683 9.96748 347568 -17685.3 -94418.7 -100498 -82845.2 263974 
192 1 44.8552 40.706 12.9996 9.51472 -107479 -6572.41 -93682 -147802 12958.5 -32995.3 
165 1 43.2579 37.9841 12.9402 9.91072 147097 154312 -30993.5 -96220.1 120362 -253341 
189 1 44.8052 38.961 10.3465 9.11341 320972 60654.3 12846.5 -39470.6 161769 64055.6 
186 1 43.2392 41.6384 10.4071 9.50008 70604.6 -173991 -94108 87485.7 38662.9 198242 
169 1 46.4089 37.939 12.9145 8.90127 -45410.7 -157498 169046 -18968.4 -55354.8 -200475 
196 1 47.9568 40.7057 12.8946 9.50607 16158.5 161549 248031 49406.4 33192.1 139202 
173 1 49.6126 38.0175 12.9455 9.67701 99089.5 -172047 68849.5 66731 18137.3 81095.7 
193 1 48.0448 38.8327 10.281 9.24322 23266.4 -185155 -208386 -218024 -81444.2 201504 
190 1 46.3922 41.6727 10.3732 8.95166 16998.8 -253401 -73618.2 -98670.7 295.157 54389 
194 1 49.6708 41.521 10.3781 9.33492 215323 -119749 410859 208827 174428 -34468.1 
199 1 32.2124 44.3276 10.5018 24.4615 -238685 -148852 -214423 -260438 -6106.41 -49362.6 
176 1 33.6523 43.3638 13.1046 15.2554 359563 78183.6 398324 39827.7 -67518.3 51753 
203 1 35.2941 44.3723 10.4511 8.74673 225689 -42579.6 219302 234387 -43538.5 -34316.7 
179 1 36.9282 43.3722 13.0007 9.32974 384548 184643 445180 207823 -18017.9 -75003.6 
183 1 40.0309 43.5406 13.0553 8.8639 -130875 616312 349421 145803 58108.9 -135757 
207 1 38.4531 44.2984 10.3778 9.99309 -58658.3 -201173 158845 31691.6 232847 -51813.9 
211 1 41.6694 44.4371 10.3933 9.77323 -54947.8 -272922 41466.7 72378.1 -110711 24604.3 
187 1 43.146 43.4705 13.0311 8.31783 -56760.3 225900 256740 -116539 139271 -208955 
215 1 44.8414 44.3695 10.3151 9.57322 -459467 -353451 -242611 14317.5 -359888 42980.5 
191 1 46.3414 43.4707 12.9625 8.80514 272486 -172225 -66220 50675.3 131769 -61499.3 
195 1 49.6282 43.4608 12.9597 9.90087 361701 392050 151085 97666.4 40992.5 1778.47 
219 1 47.9323 44.4057 10.4565 9.60225 -355972 -45966.9 5618.06 -193353 102140 -88627.6 
150 1 41.5698 49.9224 5.20912 0.191178 -206720 -192418 -49236.8 -248281 130615 -150293 
202 1 32.207 46.1145 13.107 14.9847 -118253 348238 386544 -236354 355011 -261397 
198 1 30.5806 48.9352 13.0224 35.028 -256887 479997 397375 -201671 -67446.5 -85112.7 
197 1 30.5823 47.0929 10.447 37.0463 -94954.8 179407 597218 -51408.4 55951.2 -30841.3 
206 1 35.3054 46.1362 13.0696 9.27623 168805 389467 322292 137686 -31161.5 -87862.5 
201 1 33.6558 48.8964 12.9532 9.49129 5859 288170 113003 -45268.6 -101931 189757 
200 1 33.6579 46.9966 10.4217 9.79017 177490 -34385 40729.6 112417 16250.6 -75129.1 
205 1 36.7498 48.9634 13.0546 8.92008 -4043.38 91682.1 317905 63983.8 112094 -12819.4 
204 1 36.8542 47.098 10.3076 9.87216 -4887.43 61508.8 312498 -160537 45849 116936 
147 1 32.09 49.8283 5.23859 16.7478 227304 276364 187743 -187514 52340.8 -34609.8 
218 1 44.8199 46.161 13.0945 9.48072 -132696 17046.2 170549 73091.3 20855 -15629.2 
209 1 40.0273 48.9215 13.0061 9.98017 238370 -330086 321593 160430 669.527 203811 
210 1 38.3992 46.2592 13.0499 8.85004 -96350.4 30814.2 259929 -120807 169292 63163.6 
208 1 39.9582 46.9917 10.4411 8.31874 -59227.7 17595 281098 90504 44728.3 -3907.46 
53 1 38.3954 49.972 -0.165902 9.64701 75512 714277 391102 -60209.7 -7945.75 -87148 
213 1 43.2338 49.0203 12.931 9.86317 90085.1 -288992 356511 -36025.8 2225.54 -78782.5 
214 1 41.6613 46.3272 13.0458 8.59212 -47203.5 -144708 -3042.2 163666 134423 32592.2 
212 1 43.2126 47.1005 10.4413 10.0801 86370 95051.7 241581 -181081 33749.7 -76483.3 
224 1 35.2532 49.9082 10.4248 9.33816 -247757 314528 -99355.2 95014.9 33013.4 -42311.4 
148 1 35.3152 49.9049 5.14235 0.188578 448376 131117 515110 70578.4 -39913.7 42874.9 
149 1 38.4286 49.8696 5.09524 0.175973 -186725 -249960 -59491.7 210061 75604.4 -329681 
225 1 38.361 49.8693 10.4121 9.56964 -4429.27 171757 138557 41063.1 15312.9 -145867 
228 1 47.9577 49.919 10.3345 9.55394 -44689.4 293620 283158 -36085.2 92457 193407 
49 1 35.279 49.9012 -0.0886012 9.18709 -480603 275719 90281.3 127046 -156577 -45619.5 
223 1 32.1675 49.8346 10.3988 12.5219 -192415 321827 -106840 165227 -46785.4 -242875 
61 1 44.7697 49.977 -0.066764 9.31748 -161117 32936.7 42537.6 -131965 14995 52307.8 
57 1 41.5614 49.857 -0.114265 8.8949 192042 -123216 264383 242258 128089 130534 
1503 1 47.8874 49.9937 0.032215 9.5464 -172921 -157768 -27116.9 271574 29540.9 -122463 
152 1 47.8867 49.971 5.12709 0.355866 194382 153137 264079 72389.3 129055 38064.5 
230 1 43.706 30.8324 15.6845 87.0074 -207971 -448415 -349459 -9289.9 7177.45 7301.27 
229 1 43.3237 32.4339 18.3075 22.3527 40620.5 -151182 357341 -117865 -389116 144750 
232 1 46.7405 30.8366 15.6748 45.8112 378811 -216273 -288299 -112913 87900.4 -15500.8 
231 1 46.5396 32.4102 18.2734 13.7587 299323 -134690 420560 135015 140701 -155488 
233 1 49.6428 32.2828 18.2403 10.6044 157691 323300 299517 338399 282190 -610750 
3049 1 49.8954 30.8374 15.7476 62.0466 324715 -208888 -928971 56228.8 131129 -404983 
234 1 37.0319 36.1589 15.84 41.806 -193511 -432354 133266 -44146.7 -130634 7954.82 
236 1 40.1542 36.0804 15.7062 11.9201 632430 144291 285595 -52672.7 205897 -71752.6 
238 1 38.6263 35.4356 18.3784 30.3897 84179.6 -272847 -69311.9 -180366 97700.7 46707.6 
243 1 44.9903 33.485 15.6452 8.23206 -184737 -819844 142106 -68849.2 75561.7 -190692 
242 1 41.8686 35.187 18.2748 12.5902 361546 158175 482725 -283940 -14268.2 -226621 
239 1 41.949 33.4041 15.7834 23.8433 -143676 -156808 -24391.4 -207244 -190498 33190 
240 1 43.426 36.0995 15.6789 9.0282 264638 -125675 241039 -94948.3 63261.3 -217162 
246 1 45.0316 35.0522 18.3174 8.40426 313275 208904 250976 52469 -1778.83 -53426.4 
247 1 48.1638 33.5022 15.6543 7.89899 33795.5 -375862 259185 -163210 -14831.7 -282614 
244 1 46.5869 36.1167 15.6092 9.15954 -263283 -587479 282246 -118508 41509.7 -207549 
248 1 49.6648 36.2036 15.4941 8.52873 -31713.8 -170425 -218271 -22625.1 214480 -237783 
250 1 48.2435 35.1129 18.2082 8.32982 -254372 215018 39812 -154823 -16012.8 -43054.4 
253 1 35.2459 38.7559 15.9479 35.3734 25961 -20612.5 -19509.4 182836 -374069 -164601 
256 1 35.3753 40.6959 18.3519 16.036 -117549 133784 -30512.3 -50867.9 335415 -82635.5 
235 1 37.0529 38.075 18.2911 13.7246 -472051 -451714 -108688 -238431 -171849 -22809.2 
254 1 36.836 41.5719 15.755 9.33335 18394 638732 177859 270375 188776 -38785.3 
257 1 38.4251 38.8226 15.6527 8.90932 380593 54910.5 -556280 -131115 109763 272619 
237 1 40.1541 38.0043 18.2197 9.25624 -122261 -131773 509055 -300470 -50290.9 -143214 
260 1 38.5014 40.6746 18.3119 9.83404 145102 -234033 280703 -181442 -53449.4 187671 
264 1 41.7125 40.6557 18.2076 9.76198 33506.4 -100939 216211 -211481 -68616.4 62188 
258 1 40.1225 41.651 15.7035 9.79478 284611 55389.3 375059 275944 -137666 64378.1 
261 1 41.6148 38.8653 15.4882 9.93158 314023 281174 -110377 2303.05 -64181.6 -149614 
265 1 44.8476 38.8148 15.5718 9.93112 -69936.8 -256141 440891 -58812.6 37974.1 73136.7 
268 1 44.9101 40.6094 18.3105 9.66122 -278342 8515.88 -113331 -8137.14 53225.8 -127138 
241 1 43.3092 37.9021 18.2275 9.73139 230614 213293 495244 -163534 -2132.54 -70322.5 
262 1 43.3339 41.5231 15.639 8.9665 -125009 -45737.9 335984 135394 191270 -86075.4 
269 1 47.9313 38.875 15.556 8.96552 10053.7 -458848 184258 -4185.1 -72375 23258.2 
272 1 48.0066 40.5891 18.246 8.77535 -16802.4 227751 43827.1 175447 120931 -61692.9 
249 1 49.5746 37.8887 18.0828 9.03171 15870.6 6647.67 400357 102394 45079.6 -4753.62 
245 1 46.5134 37.7911 18.2261 8.47168 -216109 283654 176929 -169505 150899 -29287.1 
270 1 49.6062 41.5528 15.6238 9.33566 -10108.8 -26791.5 -45167.8 304493 -75667.7 -23804.9 
275 1 32.3673 44.3609 15.8299 28.6978 -233320 41763.9 -244199 167339 -118658 85380.1 
251 1 33.8707 41.5744 15.6685 21.6385 -576512 -6508.87 160176 106820 37397 102187 
279 1 35.4116 44.3798 15.7095 8.95568 104857 204606 311691 51473.2 -98430.8 115121 
252 1 33.7791 43.4755 18.3422 15.0289 -301989 69177.7 -83744.4 -117270 -40707.2 125462 
255 1 36.9131 43.4669 18.305 9.17436 405686 372893 152542 191924 -31260.6 -14658.7 
283 1 38.5152 44.3262 15.6892 9.46507 70780 167653 267357 303092 146233 -98489.3 
259 1 40.1033 43.432 18.3633 9.93262 212288 152234 2365.3 -201759 -137374 -154080 
287 1 41.8703 44.3135 15.6644 8.35874 355966 307195 95183.3 -84185.6 105918 -270150 
291 1 44.9687 44.3361 15.6643 9.02835 -202892 165037 115703 147887 82232 46999.7 
263 1 43.3424 43.3089 18.2756 9.16576 87521.1 -34653.6 -27813.9 -104367 -140235 76360.3 
266 1 46.4194 41.5824 15.6047 9.56582 -273916 -204948 548607 117074 -67251.1 -126523 
295 1 48.1037 44.3174 15.5357 9.77516 -108638 456079 500047 -22830.9 16347.7 81166 
271 1 49.6942 43.47 18.1795 9.20575 158784 208175 243986 260990 22531.2 150270 
267 1 46.4945 43.3804 18.2994 9.26868 140019 186909 -12080.9 52503.6 -173275 96476.4 
273 1 30.7923 47.0547 15.6122 40.7038 -378621 -259028 165690 -37630 169969 -74355 
278 1 32.2636 46.2881 18.3121 14.6726 -372781 -152274 102188 -389040 -174696 -71593.7 
274 1 30.6993 49.0006 18.2229 32.3523 -214154 229159 382645 -152211 98871.5 83335.1 
380 1 48.0124 49.8933 21.0875 9.99168 -197813 7342.29 -49388.6 -254584 175769 71572.9 
276 1 33.7999 47.2005 15.6368 8.07626 -74428.8 -6992.31 196792 -144861 -25951.1 -158595 
280 1 36.9356 47.0679 15.7085 9.16875 -302069 -343049 -48181.8 -106163 -111866 77763.4 
277 1 33.7955 48.9053 18.2648 8.71658 9425.83 -337839 215368 -199706 173380 32696.4 
282 1 35.2847 46.1639 18.2942 8.86132 9556.3 -137488 31511.6 189484 -1513.23 -172886 
281 1 36.9007 48.9618 18.3023 9.37256 55749.4 -153509 253247 191200 8709.11 119031 
419 1 44.8194 49.8622 26.1522 8.76131 31844.6 21540.5 104008 142470 183216 42181.2 
416 1 35.3527 49.8186 26.0954 8.7687 -337384 -208780 -39782.1 -601745 -224589 23684.4 
284 1 40.0964 47.1643 15.6108 9.31308 -28750.3 187880 -125252 -117414 152923 7321.33 
286 1 38.5606 46.3123 18.2232 9.02435 150273 148717 180560 20595.2 -263787 -47242.4 
285 1 40.1562 48.9622 18.2249 9.14549 25521.3 -419201 -32052.7 -236687 125823 50855.8 
290 1 41.7065 46.1436 18.226 9.26711 111034 137345 -109311 -201945 -90393.3 -96936.5 
288 1 43.3037 47.1682 15.6258 9.58684 -208394 -107667 146191 -52860.5 101362 -298583 
294 1 44.9527 46.2066 18.3076 9.16787 82486 121244 247974 148323 48591.1 -185322 
289 1 43.3535 48.8803 18.2326 8.63675 116106 -58982.1 -17793.3 -46075.5 -118150 108641 
369 1 46.4383 49.034 23.5563 9.10643 -215593 110714 -337325 -125343 187070 220141 
292 1 46.4421 47.1764 15.6221 9.35552 -572612 320953 312495 27732 31661.2 -77858.9 
296 1 49.4564 47.254 15.709 9.04662 -20028.9 220218 437781 -111251 85355.3 259915 
293 1 46.4872 48.9653 18.2683 8.92299 -377300 -462473 243082 69393.4 144462 109154 
297 1 49.5982 49.0016 18.4506 9.81963 -121436 -301275 400406 -230611 15117.4 56057 
298 1 48.0675 46.3043 18.3454 9.06401 14000.4 -3973.16 170491 -47574.2 -9635.27 155655 
306 1 46.6411 30.6599 20.8277 51.134 -178090 -17474.8 -115463 -54400.4 -38654.9 99599.1 
302 1 41.7022 49.8262 15.6902 9.57424 -5469.18 -469782 198024 -99179.3 130898 49617.9 
310 1 37.1384 36.2153 20.9418 31.3266 -120614 -297013 277099 -44714.6 230452 -198063 
312 1 40.2219 36.0989 20.9995 12.1575 -38934.1 -336926 268907 -164982 -151455 43689.9 
319 1 44.9238 33.3182 20.8996 11.4949 356518 321488 -232697 -56529 20350.1 318752 
315 1 41.8445 33.4545 21.0566 28.1906 -86712.4 -312294 142862 54147.6 -47445 -299623 
316 1 43.4119 36.1409 20.9075 9.22509 244192 12461.7 -54549.8 -198332 123329 -287668 
323 1 48.1616 33.3838 20.806 9.09943 355457 188232 -22003 186539 -99844 203259 
324 1 49.7734 36.2165 20.894 8.20411 -524243 -13618.4 85491.7 206160 -101736 -10816.2 
320 1 46.6 36.1046 20.9089 9.14468 114886 129633 79130.4 203572 -129440 161514 
329 1 35.3347 38.8509 20.9074 24.3202 77343.3 148310 171086 100311 -76733.8 161309 
333 1 38.5118 38.897 20.8973 9.61106 38508.2 -80694.6 205439 -257489 -170600 -58774.7 
337 1 41.5831 38.771 20.9504 9.35629 163839 -168888 223053 180832 -181543 -34655.9 
341 1 44.9408 38.7419 20.8503 8.83326 280549 -495380 -33662.6 -120382 18356.4 20005.7 
345 1 48.1166 38.8174 20.8528 8.68926 147823 -265519 80066.8 96951.6 -101731 26892 
351 1 32.3052 44.4594 20.789 30.5294 -387748 -300878 -555652 -139745 74037.3 19372.4 
330 1 36.9716 41.6426 20.9945 9.16971 417680 92257.3 11461.3 305376 -96406.9 -66738.2 
327 1 33.8471 41.6258 20.8731 23.4783 -75769.1 -164333 -364969 -40682.9 140446 -160394 
355 1 35.349 44.3553 20.9582 9.31656 -165594 -129571 -9831.44 36035.4 71404 97486.2 
334 1 40.1525 41.5318 20.8883 9.24845 132678 -188504 403011 -108662 26249.2 116641 
359 1 38.519 44.326 20.9455 9.92166 -22454.2 87632.6 -14750.7 -108359 47292.3 -260674 
363 1 41.6776 44.3485 20.8361 9.85405 -124935 116176 59818.1 -185325 -280966 39942.9 
338 1 43.3582 41.4877 20.8125 8.96033 -26686 263062 -259074 43016.8 -30796 94383.9 
367 1 44.8431 44.2765 20.8747 9.86797 -64884.5 275058 -111013 -33445.8 -3089.55 25479.5 
342 1 46.4703 41.5381 20.7809 9.44836 -642038 -17696.3 -357023 -18027.3 -200286 116977 
346 1 49.581 41.6924 20.7913 9.11904 -111599 224572 539128 11964.9 -2353.27 66051.9 
371 1 47.9782 44.4037 20.851 9.37159 349370 -28265.6 -126490 -31176.3 -125501 -218710 
349 1 30.7189 47.2204 20.9248 34.5554 -318168 37744.4 171982 -43791.3 -61211.3 -87881.6 
352 1 33.7591 47.0895 20.8774 9.32631 -641804 29992.3 -50872 -177527 -11061 27472.7 
356 1 36.801 47.1078 20.8949 9.28872 216268 181046 350383 -18642.2 -179612 -66741.6 
360 1 40.1014 47.1118 20.8565 9.34447 46133.9 182503 236141 77203.8 20831.8 -117509 
375 1 32.2085 49.9064 20.8699 11.9311 210595 143355 278039 106694 112633 -72173.7 
379 1 44.8754 49.9518 20.8987 8.84279 -69993.6 -107435 -37950.7 327606 80829.1 178675 
364 1 43.2355 47.044 20.781 9.23739 55224.7 341848 -48027.6 -57246.5 3069.83 -47582.6 
368 1 46.3872 47.1966 20.9196 9.27129 91468.4 114040 105284 55687.2 -28700.8 -22313.7 
372 1 49.6387 47.0885 20.9164 9.21904 163094 1795.67 -350647 -152286 45834 280139 
305 1 43.5558 32.4936 23.5479 19.3493 -454774 284558 267455 -254064 333144 -278383 
381 1 43.8962 30.6805 26.2174 97.7415 -39373.2 98641.4 31012.9 2646.95 29370.9 -14782 
309 1 49.6733 32.5587 23.4224 13.4529 -232589 649983 416124 52177.8 -17246 -127187 
307 1 46.5798 32.5512 23.4505 13.7735 -500488 95528.7 834754 39844.6 -60255.5 81782.3 
382 1 46.9208 30.7816 26.0356 45.4567 -324665 -309835 -257287 -118498 21262.6 -185332 
377 1 38.5698 49.8546 20.8501 9.27629 -48829.1 -145986 305726 -43478.5 -178156 111809 
383 1 37.0827 36.1022 26.1131 34.7788 -12720.4 -327617 380840 -380585 -193818 134127 
314 1 38.6927 35.1096 23.5132 34.0319 135695 220256 393310 -425649 -12491.1 14416.6 
384 1 40.2445 36.0878 26.0565 11.2008 587323 25716.8 74081 -196099 -79675.3 -105905 
322 1 45.0709 35.2146 23.5255 8.94429 -420561 -80303.9 155068 195007 212232 126873 
385 1 42.0559 33.2841 26.0896 24.8094 221730 289852 206105 -414084 142574 -138051 
387 1 45.1804 33.4624 26.1225 8.42298 256010 2064.63 153621 -49802.9 -96738.7 176734 