ITEM: TIMESTEP
30000
ITEM: NUMBER OF ATOMS
5538
ITEM: BOX BOUNDS pp pp pp
0.0372549 99.9627
0.137726 99.8623
-0.81199 100.812
ITEM: ATOMS id type x y z c_csym c_2[1] c_2[2] c_2[3] c_2[4] c_2[5] c_2[6] 
11 1 40.0894 30.9201 -0.129138 96.3336 111483 121466 87226.7 -170044 -160278 -67837.3 
87 1 41.5581 31.6944 2.4201 51.7543 350624 -211664 -518061 147068 122188 -43495.7 
1 1 43.2763 30.7941 0.0572398 35.1807 315406 223435 -202170 -176939 86576.3 -11488.2 
15 1 44.8599 31.7884 2.57899 16.3695 479356 -434047 406970 10809 43760.3 280969 
3 1 46.5152 30.7765 -0.0231954 37.0226 316673 121101 290125 -106091 -250558 56313.3 
19 1 48.0272 31.7428 2.60352 15.4333 396999 -670516 305576 60237.5 -71964.4 316466 
5 1 49.68 30.941 -0.0572973 31.0833 -286283 -463478 -850850 17249.1 -315326 68491 
1375 1 36.9374 36.3267 -0.058823 22.1776 -465711 -247359 75762.9 -414124 163215 128760 
10 1 38.4586 33.629 -0.0323922 35.892 226485 309818 396219 -236385 250292 -44477.8 
6 1 38.3334 37.174 2.70563 12.4771 665133 284202 525679 65895.1 4145.35 197584 
8 1 40.0401 34.433 2.63614 22.3004 552853 528076 459342 -40343.4 95494.1 199734 
9 1 40.0105 36.3706 -0.0175258 9.42938 116484 346969 629014 48620.3 112791 -58212.4 
33 1 41.6358 37.1951 2.70447 10.0505 562499 411085 303773 104528 158096 -177769 
14 1 41.6577 33.6132 0.046348 8.57178 191655 163744 271410 -401724 -50808.3 -15675.7 
18 1 44.7764 33.5715 0.0756633 8.69542 337808 298965 -110374 112618 -34751.1 -10464.5 
12 1 43.282 34.3919 2.69632 9.20217 560440 25471.7 -402868 266619 121426 114568 
13 1 43.2244 36.2073 0.164443 9.16662 6574.26 -52781.3 320666 -82557.2 16572.1 -143486 
37 1 44.765 37.2056 2.72146 9.3933 73366.9 -56700.5 94728.9 -38328.1 -103203 -71306.5 
22 1 48.0467 33.491 0.0855597 8.84953 395428 129675 -55382.4 155019 -30327.6 105697 
16 1 46.5355 34.362 2.68293 8.80924 -83241.9 113411 190823 51687.4 -108458 -222727 
17 1 46.3928 36.2808 0.0499002 9.09825 329496 121155 193994 -55154.6 27560.4 -182395 
41 1 48.0492 37.1576 2.68639 9.7737 209351 109450 -38540 176709 -61845.8 237996 
21 1 49.7069 36.2284 0.0625437 9.52289 235588 266129 292946 96068.8 -98638.7 -87368.1 
20 1 49.6012 34.392 2.71065 9.31669 -66495.9 551268 77686.3 -52697.7 -160577 -44021 
25 1 36.9442 39.962 2.69391 15.2419 48007.9 -42204.4 499958 17256.7 52987.5 -171152 
1396 1 35.3111 39.0682 0.0803595 22.2094 -291651 51283.2 298390 -192055 293766 142890 
28 1 36.8146 41.7886 0.0750616 8.88303 5714.92 46628.9 -63749.9 -119138 187358 -14906.2 
7 1 38.3764 38.9487 0.129198 8.98586 -162232 -255556 68100.5 86797 -18921 -3921.05 
29 1 40.0671 39.9525 2.64639 9.46611 411129 -8810.44 388319 109520 131907 -45917.7 
36 1 41.6001 39.1087 -0.00173938 8.5246 56342.8 -289902 -189561 -95093.5 148133 -169400 
34 1 43.336 39.9036 2.65032 8.51809 -105105 -783919 309982 139798 -119108 -46868.9 
40 1 44.8053 38.9916 -0.0223935 9.59625 308263 465513 283897 208418 -123486 154501 
42 1 49.7551 39.9165 2.70503 9.43358 116363 -100085 -23910.8 160546 146643 -205633 
38 1 46.463 39.8136 2.68459 8.88704 160606 -2800.84 183783 -23957.8 163674 -14044.1 
44 1 48.0261 38.9991 0.0984349 9.57813 192059 -233389 -111885 119886 98691.8 -109720 
43 1 49.6792 41.7451 0.0645887 9.66713 -50289.4 186567 129393 100521 -95878.8 -159417 
1418 1 32.2359 44.4367 0.117142 23.4565 -72760 265377 206811 -76391.7 -67969.4 -210166 
1392 1 33.7702 41.7602 0.0391357 22.2806 -426422 -76447.1 -82870 69420.9 150232 84329.1 
47 1 33.693 45.3888 2.6776 13.7843 -75159.2 -95289.9 336628 151973 -224405 -111774 
23 1 35.2517 42.6652 2.7221 14.7334 545852 302477 757322 98117.5 -76443.8 -215721 
24 1 35.3236 44.5539 0.0551379 8.90172 -65860 -6129.86 272794 189958 -4724.6 105021 
51 1 36.8047 45.435 2.75813 9.20538 165935 207632 330678 110767 176362 -117034 
32 1 40.0356 41.7263 0.000894328 9.43886 119928 25783.1 42813.7 352235 -119400 197046 
26 1 38.4781 42.6299 2.73571 9.70122 509772 -242249 361901 -80135.7 42771.2 177520 
27 1 38.4504 44.4903 0.132606 9.42617 56259 99069.8 170005 83397.8 -256338 -14240.9 
55 1 39.9441 45.405 2.78371 8.65093 263502 388571 301128 -201010 -36371 -160303 
30 1 41.7258 42.5307 2.72493 8.54289 -437834 -17175.1 176976 -83246.1 37152.2 122141 
31 1 41.6341 44.4864 0.129384 9.77518 106220 -4588.46 143041 333243 -150834 -234720 
35 1 43.1803 41.7608 0.0665238 8.49459 8359.74 -438806 -177553 -159889 65470.1 51134.9 
59 1 43.1649 45.376 2.71215 9.17794 471070 272659 175360 77133.5 -91605.8 -182690 
63 1 44.7533 42.5942 2.72121 9.07572 -286972 -124147 187025 -360348 96242.6 221562 
66 1 44.8318 44.4078 0.11636 9.65725 188911 149617 -36571.5 -64525.2 -13225.7 -14236.4 
39 1 46.5818 41.7337 0.0937529 9.00391 47864.5 17614.6 13434.7 -101.463 73353.9 54640.8 
67 1 48.0723 42.5798 2.71973 9.30384 293670 230181 26262.9 130693 -124973 -12880.5 
64 1 46.4035 45.298 2.7437 8.78725 503506 376725 47373.3 95543 18279.8 -62460.4 
70 1 48.0605 44.5528 0.195411 9.47092 298672 208078 -54968.1 -47220.4 -87016.8 42093.6 
68 1 49.7181 45.4608 2.66332 9.7223 289882 153083 -82687.7 238128 -23468.4 -28149.9 
45 1 32.238 48.0882 2.70493 18.4884 -301551 43432.2 137515 246428 45939.1 61447.6 
1414 1 30.7875 47.2171 0.0828994 48.6344 -143244 -6062.53 -306481 -232343 10139.5 -57359.1 
212 1 43.3638 47.1807 10.5623 9.0812 -78523.7 64371.9 -44193.7 135564 -366756 -8139.78 
50 1 33.8436 47.2478 0.0523228 8.96792 -16715.9 173736 317667 55441.9 66884.7 33014.1 
48 1 35.2979 48.1298 2.73316 9.53857 -37723.6 -51780.8 296430 132746 -15469.6 124546 
54 1 36.9385 47.2575 0.0418771 9.80122 7348.73 -32609.7 612767 -254486 20610.2 -34661.8 
52 1 38.4423 48.2139 2.74696 8.99882 -59589.8 -263142 509251 218600 -22215.9 153085 
58 1 40.1639 47.2044 -0.0201543 9.43049 300280 107094 420546 119931 -69685.3 -55907.4 
56 1 41.6245 48.1706 2.70593 9.16063 264281 76648.3 303533 225976 -76280.5 145877 
62 1 43.3705 47.2631 0.152875 8.68931 -31847.3 376781 1655.75 168523 -104211 -77224.2 
60 1 44.8456 48.2039 2.6817 9.70859 161824 -210050 -190257 26632.3 -6531.87 -337062 
69 1 49.6383 47.3311 0.170241 9.60918 -267417 -217116 134527 138619 29703.1 86796.4 
65 1 46.4913 47.3012 0.177261 9.95951 -183763 423146 256306 97434.5 -133.128 -120259 
76 1 48.0902 48.1595 2.76909 9.60904 277225 -73852.7 -373654 167481 -68551.5 -5554.29 
228 1 47.977 49.9151 10.599 8.82115 -465908 69692.8 -53272.5 41121.6 35029.1 -97682.2 
77 1 43.3238 32.7607 7.9272 41.5846 -285771 -203082 -483410 -194226 -234065 -26319.6 
4 1 49.6845 31.0114 5.22525 22.3691 68396.3 -461708 252998 -97437.3 119054 -448000 
2 1 46.4936 30.9692 5.22205 34.8922 -129515 -311745 172749 -204236 26254.9 -142667 
78 1 48.1148 30.0909 7.78101 45.0489 -267805 -434441 -171223 -175740 -162501 -188997 
79 1 46.4765 32.6481 7.8754 12.576 24845 -124303 -199389 -34676.1 243063 -34065.3 
81 1 49.7178 32.606 7.81526 9.23842 379524 41647.4 27135.8 -114689 -50150.7 -168521 
82 1 37.1212 36.2518 5.48742 51.8849 -396987 57073.1 -413806 52252.9 12746.8 -152191 
84 1 40.1204 36.3114 5.31665 16.9051 -102497 -214948 429695 -70609.3 -29844.7 2523.95 
86 1 38.6281 35.2971 7.99443 39.4817 -221929 -292322 -249611 70156.4 -45718.8 -230506 
91 1 44.8054 33.5586 5.35147 17.1444 54480 -284496 401782 417496 -117182 313977 
90 1 41.7564 35.384 7.88633 11.8114 3975.42 -46286.1 -403661 -36174.8 -24869.3 -184358 
88 1 43.3299 36.1553 5.29625 7.87412 -62816.4 -259855 142101 266473 155981 -63525.3 
94 1 44.9193 35.3771 7.95316 8.80714 -323912 -482646 -359259 2636.31 -34615.3 80921.9 
95 1 48.032 33.5508 5.26811 0.193369 380032 -295368 -274697 38298.3 -50813.6 102068 
92 1 46.4868 36.2868 5.23539 0.17636 109208 363451 4249.31 76675.8 15765.2 -95813.3 
96 1 49.6551 36.3101 5.18221 0.281098 -87873.1 126966 -179456 31029.7 -22614.8 138669 
98 1 48.1066 35.3106 7.84123 9.57978 189649 280024 402141 123060 -54892.7 -19068.5 
83 1 37.1926 37.96 8.04414 12.7295 -365903 240087 395228 -230242 57070.1 -288096 
101 1 35.5581 38.9756 5.47279 40.6641 98304.1 245174 272276 -342897 5440.93 -51501.1 
104 1 35.4885 40.8234 8.03594 15.579 -18371.9 -55431.3 -106154 -360735 -327606 222313 
102 1 36.9014 41.7346 5.34304 0.315136 -32347.2 30329.4 197458 -46401.8 38935.1 -66534.3 
85 1 40.1559 38.0533 7.93526 9.38088 -100438 68820.3 137110 202387 62064.2 176170 
105 1 38.6173 39.0592 5.32082 0.385708 -41058.1 266274 256877 72810.1 -62349.2 -243041 
108 1 38.6244 40.7677 7.9125 9.49961 329133 169408 216288 -8426.91 137780 -154299 
112 1 41.8001 40.722 7.85426 9.32808 -256832 -143933 -223040 -49678.4 -32556 -129079 
109 1 41.7759 38.9105 5.34752 0.356726 -346548 94062.2 8337.11 -55693.3 -37339.2 -308145 
89 1 43.4061 38.0665 7.88449 8.43266 -276635 -224264 -224261 126638 -190363 194005 
113 1 44.8196 39.0481 5.2804 0.381831 -282590 59453 -288179 72187.2 99811.2 -102334 
116 1 44.9274 40.7527 7.89433 9.34066 -571100 -384879 -136344 78510.6 207960 -145327 
93 1 46.5212 38.0161 7.83605 9.73514 -329506 -250817 183607 -129604 218828 -112242 
117 1 48.0788 39.0266 5.307 0.147718 350748 -213103 318043 -142543 69375 123923 
120 1 48.0271 40.7626 8.02598 9.81928 8653.24 -309506 50364.4 22667.6 -302354 -63634.2 
97 1 49.6622 38.1158 7.98423 9.33694 -155827 -504953 228734 614.334 39641 21186.5 
114 1 46.4624 41.7275 5.30059 0.121846 303475 -22446.9 106363 39186.4 123021 -33124.1 
118 1 49.7191 41.6619 5.27921 0.226706 413986 -178551 37972.2 -251803 -70585.7 -333817 
123 1 32.1903 44.4884 5.35406 37.0197 16977 282413 -55650.2 -182287 3084.36 -99484.5 
99 1 33.8664 41.7713 5.64267 41.8397 -263266 12659.4 -712947 -144206 -212335 -334510 
100 1 33.8042 43.5322 7.97417 15.6443 -92936.2 -191012 338539 -306691 -117388 -562991 
103 1 36.8705 43.5294 7.96134 9.49098 73753.8 -289324 454641 -460326 241435 -93974.6 
127 1 35.2811 44.4943 5.29926 0.304235 205683 -381149 29531.5 14596 37088 -191908 
106 1 40.108 41.7434 5.35709 0.147459 -15403.2 -279672 -12314.2 -284411 23051.4 123198 
107 1 40.1088 43.5005 7.99977 9.68318 323088 187151 69821.9 -20320.6 22799.3 128902 
131 1 38.5278 44.4411 5.40393 0.254777 -100355 -67552.4 -106592 -58046.5 140948 -151854 
135 1 41.5957 44.4809 5.40914 0.334431 -163077 -4340.41 361695 -106959 7500.49 110728 
110 1 43.265 41.724 5.27357 0.20339 -117432 -200542 -368080 38500.6 77133.4 197605 
111 1 43.3659 43.4421 7.93418 9.23827 263998 129250 28167.2 -39573 89356.5 234182 
139 1 44.8475 44.4788 5.37089 0.172972 120791 -163312 -191265 -66913.3 112505 50692.8 
115 1 46.5263 43.5329 7.85339 9.46039 30523 120941 195373 218088 -132558 -140621 
119 1 49.6999 43.4712 7.80074 9.60907 -21848.1 555428 -239408 -169089 13726.3 3934.9 
143 1 48.108 44.4845 5.25586 0.177329 -40050.8 184939 -65462.5 97423.9 -99067.9 107542 
121 1 30.7778 47.3265 5.29339 50.1407 -242178 -430619 -118443 -309345 125795 59268.3 
126 1 32.125 46.2165 7.98723 15.2181 -92259.5 715792 317224 -101474 -79767 -259678 
122 1 30.6268 49.0103 7.89861 32.2091 -220807 500262 421764 -115218 14732.1 -147426 
217 1 46.5045 49.0104 13.1978 9.52513 -240509 42446.4 133597 -304859 109208 198743 
125 1 33.6956 49.1758 7.99908 8.89094 190458 811304 337098 112857 87288.4 66608.1 
124 1 33.8106 47.1847 5.32299 0.284812 -378304 248340 213559 176331 -296809 73787.4 
128 1 36.8647 47.207 5.34276 0.0990826 -562796 17945.5 131286 -80338 -4681.02 -61774.7 
129 1 36.8436 49.0796 7.98032 9.05627 -353202 336589 -226172 -136853 41868.4 281796 
130 1 35.2149 46.2639 7.91045 8.69736 329180 346959 -104398 15826.9 -13067 57802.4 
132 1 39.9941 47.2275 5.38324 0.233718 129768 59264 265706 60670 78251.4 -233455 
133 1 39.96 48.9479 8.02527 8.98534 92021.7 117181 -228768 191568 -204189 43835.6 
134 1 38.4071 46.1537 7.95628 8.506 437527 -86828.7 40303.6 -134518 248748 -186159 
138 1 41.8142 46.3053 8.01328 8.98194 380083 33815.3 194287 -200796 25280.5 -87076.7 
226 1 41.6924 49.8165 10.5594 9.04845 175651 -313046 -236774 -175297 143245 100812 
220 1 49.7117 47.3159 10.5445 9.1864 264066 125700 171270 11611.8 -101960 144853 
136 1 43.2388 47.2124 5.27233 0.192238 321611 68941.4 231830 37281.4 53950.1 -125765 
137 1 43.2636 48.9948 7.91192 9.64209 -135058 -425985 279815 -166488 75632.4 35449.4 
142 1 44.934 46.2736 7.89672 9.64762 -150463 151738 -5703.42 16923.5 122167 -171706 
218 1 44.8402 46.3165 13.1281 9.05583 271047 190566 -39079.7 -71779.3 -180793 32182 
140 1 46.4673 47.1666 5.33253 0.238991 306994 196053 196037 -98323.5 117581 106194 
141 1 46.3786 49.1178 7.98271 8.91496 171466 -48712.6 121521 229228 28383 16775.7 
144 1 49.7056 47.301 5.25715 0.227149 83463 23226.2 143735 51278.4 -124850 87884.8 
145 1 49.6458 49.1463 7.95324 8.54727 248837 -273093 23595.2 -318206 -218705 116328 
146 1 48.1373 46.4024 7.89916 9.02509 38312.1 589187 474192 -61496.6 -33674.3 -29338.5 
153 1 43.3741 32.5668 12.9231 19.7341 139768 -16298.3 701001 -543178 36930 -59894.2 
155 1 46.5137 32.3868 13.1934 14.3421 -347929 379980 568206 -65724.1 -116496 -528941 
154 1 46.6035 30.8637 10.4117 41.6311 -102972 -31560.9 -51088.5 -154925 62566.8 212496 
157 1 49.5381 32.4844 13.0025 13.6685 -378989 290214 535684 219672 -188710 128707 
156 1 49.6597 30.7431 10.2759 21.2972 228888 -220056 -444335 44289.3 4300.28 135158 
158 1 37.2278 36.1431 10.6282 30.2115 -394127 160260 269425 -196156 123202 85503.2 
160 1 40.1852 36.2437 10.4699 11.7814 -699576 -113172 318992 205151 -195821 93092 
162 1 38.6889 35.1405 13.213 30.8493 -312233 298100 620154 -340678 -131296 18483.8 
166 1 41.6685 35.3143 13.1106 11.5121 -480431 -113332 454905 -167481 68389.8 -47361.6 
163 1 41.654 33.5657 10.4746 29.1215 376880 -431651 157237 -43353.5 -40097.9 68004.3 
167 1 44.9016 33.5526 10.3924 12.1524 638828 -395119 -660886 -278018 272930 -243516 
164 1 43.2503 36.1981 10.4227 9.15141 -299988 -108626 -106332 90856.6 -23959.8 -24064.6 
170 1 44.8743 35.1453 12.9695 9.3034 -1207.66 -101283 -82477.4 -447788 64429 -171013 
171 1 48.1469 33.4854 10.4632 8.60075 102573 -109777 110532 88848.7 -227561 75326.2 
168 1 46.4973 36.1538 10.5119 9.47935 -16802.8 -215761 -309711 18325.1 -66126.8 -209421 
174 1 47.9916 35.1745 13.1006 9.0842 -18348.6 51602.2 -158759 283208 -59838.4 -114963 
172 1 49.6955 36.2085 10.4988 9.33017 90411.4 -115393 229987 53668.4 -59209.4 -65722.8 
177 1 35.4975 38.9346 10.4797 22.6983 23459.1 -105016 -41022.1 -278068 65793.4 145065 
159 1 37.0262 38.0367 13.2298 15.3144 98947.2 752513 859457 -725188 31862.9 -8211.34 
180 1 35.2104 40.7081 13.1619 15.7861 359768 463535 86721.2 -142039 -209737 286303 
161 1 40.1215 37.8964 13.3233 9.26087 -253278 59081.1 206080 311388 -218404 -79774.8 
184 1 38.5198 40.7098 13.2261 9.35931 547429 -390697 -185260 -75768.8 -110167 -199357 
181 1 38.6135 38.9552 10.6563 8.82255 338296 58051.7 223537 90687.3 24599.6 -181420 
182 1 40.1904 41.6238 10.5372 9.43374 84848.2 -99870.6 435642 16652.2 -53155.5 6049.63 
185 1 41.8073 38.9962 10.5392 8.91037 84468.4 -181289 548966 215632 -103505 -5098.22 
188 1 41.7634 40.6476 13.2505 9.28824 327652 231063 -26197.7 -7943.2 -203149 -243370 
192 1 44.9526 40.6379 13.0853 9.00892 -168012 15641.7 200592 51310.8 242631 163779 
165 1 43.2678 37.9137 13.1465 9.06716 4562.47 82525 340320 -41236.4 -243153 -48740.8 
189 1 44.93 38.8298 10.4336 9.42981 -185068 26464.7 -19988 -30232.5 -252432 -32961.8 
186 1 43.3569 41.6414 10.4341 9.80715 -390352 -148267 134292 -333827 -31257.7 128261 
169 1 46.4481 37.8697 13.0555 9.40567 212895 -380742 -103873 141722 54283.1 -2513.55 
196 1 48.082 40.596 13.1399 8.97786 -174420 438115 205860 -42774.3 -82856.7 -27698.1 
173 1 49.724 37.8676 13.1482 9.24736 162148 -17949 -211439 131988 -16449.3 52677.1 
193 1 48.1084 38.906 10.5067 9.47855 -106227 -339706 -264124 -20644.8 280756 -14173.8 
194 1 49.6677 41.5994 10.4598 9.62669 150091 -153063 -128136 86192 -288720 -95099.5 
199 1 32.1074 44.4906 10.6643 25.0402 -94147 -627819 -13453.1 81137.7 -277853 328890 
178 1 36.9991 41.6 10.6384 8.95505 151535 -25245.5 139106 93416.8 -264825 -165702 
175 1 33.8935 41.6654 10.7021 21.5262 -102638 208677 -223385 78597.4 -270735 67499.2 
176 1 33.6873 43.6377 13.1323 13.4311 256812 411204 77048.5 -382115 -318868 -46367.6 
203 1 35.3441 44.4631 10.5634 8.72697 534091 29836.8 -80227.1 158791 44102.9 -234262 
179 1 36.9099 43.417 13.1792 9.58609 287301 183744 -149491 -91772.7 30883.9 30231 
183 1 40.0481 43.4159 13.1465 9.00242 41754.6 -45527.5 -45832.2 -129749 55741.1 144166 
207 1 38.487 44.3972 10.6427 9.36882 102141 52528.8 -322800 53273.3 20918.2 -198422 
211 1 41.7036 44.467 10.618 9.42323 281087 297173 103742 -35690.5 -99992.4 -119508 
187 1 43.365 43.392 13.1985 9.42953 293928 382400 346918 -7339.55 -145436 3874.95 
215 1 44.942 44.3695 10.5693 10.1137 -61302.5 -287067 560675 -99146.1 20948.4 -21017.8 
190 1 46.4115 41.6421 10.5948 9.20827 -256312 -110171 35060 115694 230693 64273 
191 1 46.5189 43.4185 13.2465 9.04469 -4732.8 298472 -184440 -198178 10189.1 121033 
195 1 49.6389 43.4573 13.1183 9.32251 -371503 66008.1 148635 260272 -141347 182198 
219 1 48.0683 44.3304 10.5366 9.6165 -152582 327523 471262 152207 -149602 -99668.5 
202 1 32.1283 46.4337 13.2672 13.0465 -272705 188933 534732 -483014 -146216 -127053 
198 1 30.4576 49.1236 13.1728 35.824 78074.8 323005 394181 -154020 40566.1 242341 
197 1 30.6979 47.1064 10.5621 40.8268 -545646 -526256 337243 205834 128961 -20942.2 
222 1 48.0906 46.2184 13.1299 9.64187 335404 359891 365425 67081.2 21802.7 -6093.14 
206 1 35.2203 46.3276 13.0196 8.8348 -103563 -106531 -5378.3 -8671.61 -107470 -194744 
201 1 33.6553 48.9965 13.1754 9.82261 412320 -194281 97818.6 -271011 -41751.5 171868 
200 1 33.7036 47.0723 10.506 8.34922 -220714 43276.7 -228963 46161 -355569 40906.8 
205 1 36.8198 48.9974 13.1599 8.99571 158657 -4903.47 -182651 -169865 -48338.2 126897 
204 1 36.9023 47.2 10.4578 9.25823 70912.9 -144817 -116741 9382.49 123870 101292 
210 1 38.3584 46.1535 13.0953 9.02763 435520 113427 -192951 146897 154770 -134733 
208 1 40.1274 47.1987 10.5628 9.77879 205613 -250791 179736 -18381.5 72838.9 109753 
209 1 40.1612 49.0729 13.1519 8.42046 210789 498453 -148915 1361.75 87917.2 31813.6 
214 1 41.6764 46.1468 13.2007 9.01742 415829 423228 8965.66 68337.8 54069.1 -298510 
216 1 46.5006 47.1249 10.5148 8.893 109490 88322.5 256139 -148369 92738 32002.4 
221 1 49.5972 49.0996 13.2429 8.7215 -22772.4 -231418 358244 -9868.66 -33491.7 129998 
213 1 43.2987 49.0421 13.2274 9.25814 62852.4 342199 190002 290668 -69305.9 35312.1 
151 1 44.8494 49.977 5.2948 0.136352 303672 319848 -251302 35289.5 -137275 -85488 
225 1 38.4693 49.9047 10.6189 8.96685 62654.6 -259784 -237229 2947.15 50476.9 -52211.8 
224 1 35.2632 49.8979 10.6118 9.17005 344660 158635 -124271 177175 -134589 -213683 
149 1 38.4578 49.9661 5.47121 0.214284 -245492 -394402 -249642 353784 -220215 194192 
223 1 32.0523 49.8973 10.6115 11.0584 186300 356454 295458 -74106.3 82399.7 -14272.7 
148 1 35.3295 49.9807 5.42253 0.118089 258808 229348 -92604.6 -24158.3 240789 291644 
53 1 38.4835 49.9599 0.12871 9.44168 562303 105708 249233 -88388.5 -263916 122276 
227 1 44.9764 49.9581 10.6084 8.90055 -234213 440562 257548 135563 176398 72140.9 
152 1 48.1246 49.9796 5.36567 0.175433 143739 145398 10763.9 128742 18673.4 41442.7 
46 1 32.1929 49.9741 0.103951 16.0892 -510696 270625 -315167 13931 843.386 144652 
230 1 43.4988 30.7369 15.5049 96.1922 -313370 -425491 86418.7 -30016.3 -54054.5 -22012.3 
229 1 43.4269 32.3599 18.2948 20.2014 -150219 120028 705174 -273906 -108094 179842 
243 1 44.9047 33.3406 15.6438 9.28532 -68535.7 -127487 377179 -343203 184023 -236589 
232 1 46.5007 30.5341 15.8109 53.5278 373722 124729 3508.17 -59017.6 -58041.1 -179458 
233 1 49.685 32.5257 18.259 14.1513 -123997 -137728 205739 74691.3 33737.9 -76459.4 
3049 1 49.6942 30.7689 15.6724 55.8466 195341 -177154 -107718 106999 421.632 -51661.7 
231 1 46.4981 32.3757 18.2794 14.2145 -78605.1 -85425.5 340747 -76924.9 292487 -110805 
247 1 48.0275 33.3275 15.6868 9.37989 329416 36044.6 -378978 237369 -241845 -143869 
234 1 36.9589 36.0601 15.736 38.202 387003 284442 462850 -91466.4 -69389.3 89323.3 
236 1 40.1848 36.0667 15.8395 12.1612 365154 -460758 -243761 -141023 154571 -34111.5 
238 1 38.5407 35.2191 18.343 32.9966 96490.2 -130819 -215487 -173611 277194 -104283 
242 1 41.8168 35.1259 18.4426 13.0655 41085.9 44034.6 -8762.31 -267443 -76259.3 215360 
239 1 41.8273 33.3822 15.6704 22.2097 49537 155529 951779 -274107 -4749.63 21269.6 
240 1 43.3104 36.0724 15.7527 9.37583 49791.8 119430 341446 -103316 -38159 -61672.9 
246 1 44.9209 35.0585 18.3299 9.36933 -339286 362586 190321 39424.5 -52649.4 26066.5 
244 1 46.4536 36.0791 15.6436 9.11215 48935.7 -168569 142123 170452 139233 -18056.1 
250 1 47.9951 35.1135 18.2547 8.87939 -216344 139287 47644.2 257387 29644.6 -24210.8 
248 1 49.6996 36.0508 15.6197 9.70523 301412 191110 -187761 199911 -159188 284529 
253 1 35.3157 38.9785 15.8169 24.8451 84815.9 431953 -78044.7 -40567.1 -27136.9 15046.9 
235 1 36.9126 37.9115 18.3502 15.398 39866.8 -3576.11 69691.3 -436207 257993 199712 
256 1 35.445 40.7758 18.3574 15.7163 -786366 52385 203655 -385425 135861 -209307 
254 1 36.9917 41.692 15.7852 8.20854 455696 392939 -127118 234127 229865 16337.8 
257 1 38.474 38.8506 15.8702 9.49034 304520 618156 -411230 40772.9 65182.6 -105877 
237 1 40.1454 37.8252 18.3614 9.4014 192422 133034 -389815 -74679.7 -37060.8 -44133 
260 1 38.391 40.5583 18.4179 8.49449 -244302 352202 61815.9 42918.7 -137650 -347606 
261 1 41.6094 38.7811 15.8038 9.1208 15034.1 3378.86 -323270 -196965 -225332 57935 
264 1 41.649 40.6539 18.4356 9.73165 217605 144944 56866.2 169410 -86617.4 65859.9 
258 1 40.0941 41.6286 15.7708 9.57973 -162974 180649 35612.3 -59464.6 -131137 -245961 
265 1 44.8633 38.7802 15.7148 9.66206 320758 -22716.1 280951 177028 -75255.9 6343.44 
268 1 44.8384 40.656 18.3655 9.65963 -71599.2 123287 -350014 58530.2 -76213.7 -107874 
241 1 43.2612 37.8458 18.3346 9.52322 103864 170763 8239.85 -21049.2 54537.3 -106685 
262 1 43.2716 41.4779 15.7587 9.12031 39618.7 267182 -39180.2 45028 -314856 48388.9 
269 1 48.0645 38.8056 15.7261 9.96592 325755 331398 185562 -160328 174142 214554 
272 1 48.0184 40.6657 18.3906 9.70339 96337.5 -182126 -41914.8 43400 142322 49520.1 
249 1 49.6892 37.9097 18.3387 10.2274 210269 240622 169846 162069 -160771 106628 
266 1 46.4661 41.7094 15.7645 8.70168 257131 337994 63027.3 -12049.1 35912.8 199376 
245 1 46.5216 37.8922 18.2946 9.65547 216978 157031 98702.8 -20590.4 134343 10396.7 
270 1 49.6381 41.6572 15.6888 9.34788 130682 3461.11 -64038.5 -5377.1 -88595.7 -113823 
275 1 32.0166 44.3924 15.8197 29.1519 85280.4 246145 -16876.6 153046 -125829 -176821 
251 1 33.8018 41.811 15.7178 21.755 -16746.7 -597339 133325 -360537 156736 -77114.1 
279 1 35.1782 44.3781 15.7497 9.46952 370709 -432969 -64831.5 -359859 -25448.2 -202324 
255 1 36.8908 43.4411 18.3341 9.71861 465340 -109189 179119 -163490 -39793.2 -270037 
252 1 33.739 43.5262 18.3263 15.4914 -228533 -506571 -247036 -399342 205231 64372.1 
283 1 38.5022 44.4681 15.682 8.76784 202589 97556.7 72394.4 -41648.4 -29641.7 -74902.3 
259 1 40.1324 43.3837 18.3628 9.18894 365542 207115 -166958 35207.5 134241 -123631 
287 1 41.6371 44.3486 15.8404 9.83299 40783.1 50129.2 100593 -110397 115476 156663 
291 1 44.8041 44.446 15.7301 9.16603 115376 72233.1 37716.3 52314.9 45538.4 -136646 
263 1 43.3646 43.4588 18.3573 9.32829 41328.3 177756 -175801 43547.6 -189402 48437.8 
295 1 48.0744 44.428 15.7888 9.12745 -128963 -129094 -101539 75649.5 -188400 41841.4 
271 1 49.6328 43.4135 18.2633 8.73511 -233181 -93571.9 -281230 5615.27 -94191.8 91455.7 
267 1 46.5087 43.4229 18.3553 9.1334 -200531 -120046 -108353 -42828.6 152531 -58210.9 
273 1 30.588 47.4142 15.7959 31.913 38541.2 -89873 -278902 -166530 120653 -274206 
278 1 32.1569 46.2052 18.2886 14.6907 -128121 399853 244527 -214903 8604.37 -123051 
274 1 30.6753 49.069 18.315 28.798 -343582 177661 -339310 -266781 -49368.8 -254804 
416 1 35.123 49.91 26.1261 8.94757 -340374 -103594 415925 -125519 79134.7 -176279 
276 1 33.7426 47.1836 15.7801 9.09969 524396 624737 -356860 185633 -175609 -98574.9 
280 1 36.8473 47.1393 15.7215 9.00569 82108.2 -192386 67234.2 -130773 77589.6 26205.2 
281 1 36.7324 48.9156 18.2849 8.42469 -55422.9 -18153.2 210310 -51925 174408 -33284.3 
282 1 35.2248 46.1241 18.3181 8.59951 -193488 -234560 -264104 -61029.1 -2171.18 20726.4 
277 1 33.7259 48.9957 18.2639 9.18588 -428276 276616 -140235 -15836.7 -37793.6 -254836 
374 1 47.9932 46.1644 23.5964 9.45888 323187 239269 -436616 -54347.3 -106805 -160285 
284 1 40.1758 47.1684 15.7405 9.49399 3914.05 -335836 109112 -20600.5 127574 -86581.5 
286 1 38.4177 46.2152 18.3329 9.07818 302990 108340 74182.1 -112887 -90862.9 24159.5 
285 1 40.0399 48.9082 18.3444 9.44174 77957.8 -112545 -42469.7 110030 -260558 -122491 
369 1 46.3053 48.9846 23.6 9.17582 211151 79725.9 -739311 -3085.36 -271773 -64856.6 
290 1 41.6297 46.184 18.3761 9.42048 59814.7 -263977 -302415 6746.04 -140320 -170394 
288 1 43.2882 47.1413 15.7877 9.82779 -435037 -400381 17470.9 156915 -92220 -18370.5 
294 1 44.8655 46.2538 18.3597 9.49781 55170.9 42709.5 -113692 34146.1 142746 79518.9 
289 1 43.2284 48.9293 18.3878 9.99438 151404 92309.4 -226605 -30848.2 168020 287864 
418 1 41.56 49.8254 26.2548 9.65621 292952 272528 -116257 -106960 206945 -207649 
292 1 46.4538 47.1138 15.7597 9.52629 -78211.4 22965.7 251288 129377 49014.8 117172 
296 1 49.6483 47.2367 15.7746 9.15607 -202103 -61917.5 309594 25430.5 -157691 55291 
297 1 49.5886 48.9657 18.4505 9.17194 211783 404397 -162484 -47695.5 39900 187274 
298 1 48.0107 46.2035 18.4268 9.25013 335008 73035.6 -176634 -188557 -190313 299467 
293 1 46.4042 49.0573 18.4677 9.54321 -131420 250782 -142050 -45963.6 -64482.1 49581.7 
419 1 44.7744 49.8168 26.2065 9.77091 210539 239259 -81435.4 -57649.4 453811 -63091.1 
319 1 44.9668 33.2151 20.8644 12.8464 138418 112069 -146109 -21280.1 -43140.9 44469.7 
306 1 46.8959 30.7236 20.9449 45.799 140096 -546121 -117019 -168343 121186 -105814 
417 1 38.2915 49.9582 26.1424 8.70278 433343 123747 293109 -24823.6 84173.1 234936 
310 1 37.1653 36.1016 20.8618 40.1002 -715508 -474441 61150.1 -233561 248833 -81622.7 
312 1 40.1296 36.0455 20.9286 12.7472 -194231 -141174 267014 147681 -24397.4 -35838.9 
315 1 41.8809 33.3694 20.9332 29.8767 32487.8 -318015 20492.6 -161965 -35681.5 159156 
316 1 43.3822 36.0355 20.974 9.34365 356077 97530.9 58868.7 -161313 -261739 -144380 
323 1 48.131 33.3529 20.8269 9.33392 72236.4 -1.00655e+06 -238398 -364106 42907.7 -69185.6 
324 1 49.7096 36.034 20.8268 9.39561 -240510 -151779 -143490 -186730 47442.1 122545 
320 1 46.5641 35.9692 20.9034 8.91544 -17944 346438 -349552 396855 -192646 38098 
329 1 35.5128 38.8603 20.9468 22.4618 -259601 47105.9 50234.4 -245881 29694.4 2646.34 
327 1 33.824 41.7005 20.8653 31.7685 -203930 -13648 32781.6 -75552.1 69314.9 4018.6 
333 1 38.5377 38.7213 20.9951 8.7784 -268508 -300155 155919 -135135 -91549.6 182308 
334 1 40.0192 41.5397 20.9969 9.99849 246692 484128 35540.6 136331 -91251.5 109590 
337 1 41.7266 38.7673 20.9029 9.58525 195906 304600 -266732 123819 -119849 79677.8 
341 1 44.9403 38.751 20.9169 9.0744 -3512.19 159879 90766.7 -218899 189635 151547 
338 1 43.3178 41.5683 20.8825 9.43719 -11412.2 298099 -228167 -123954 12285.7 22487.1 
345 1 48.0741 38.8797 20.9129 9.19772 42565.8 342717 -239785 150624 -166414 106807 
342 1 46.4271 41.5844 20.8403 9.84937 -154752 36122.1 -678940 182166 18499.4 -235606 
346 1 49.6562 41.713 20.9431 9.41276 -10961 476772 53904.5 -44701.9 -43166.6 -47763.5 
351 1 32.1912 44.372 20.8796 23.9804 14674.6 -28505.9 37701 -51403.5 141322 -1227.26 
330 1 36.8801 41.551 20.9923 8.45187 -176902 121687 -293776 -89476.7 -194250 -102238 
355 1 35.3144 44.377 20.916 8.65629 218400 80818.4 -30114.4 52258.3 -40295.6 -29780.2 
359 1 38.4594 44.3619 20.9031 9.39342 29378.4 -3780.15 159135 -135226 -62784.2 -103647 
363 1 41.6336 44.3283 20.9247 9.65112 170445 203772 -143785 28382.3 -152286 -154418 
367 1 44.8556 44.3775 20.8823 9.87405 250066 228597 -208674 2100.89 -284353 -98323.8 
371 1 48.0789 44.5293 20.8946 8.29892 286737 -5234.07 -214931 -64206.7 -27482.3 246149 
349 1 30.5713 47.1915 20.8681 35.467 140638 296906 311492 40433.4 -65457.5 -58270.3 
414 1 49.6605 47.1125 26.0086 10.3789 156669 266992 11477.8 -40135.3 -92898.7 85257.2 
420 1 47.9696 49.9115 26.0918 9.64642 282518 317946 -104695 186402 67182.4 -122999 
352 1 33.7102 47.1114 20.8733 9.36546 449363 402142 193844 40084.1 -46878.3 -40719.1 
356 1 36.8583 47.1618 20.9263 8.41836 -140378 -25651.3 -40663.4 -9456.6 91618.8 -1735.71 
360 1 39.9871 47.0249 20.9375 9.8092 -213941 -157960 -85332.2 -150374 -74727.7 -93303.2 
373 1 49.5623 49.0623 23.6081 9.60749 492152 269792 -364372 70841.6 167164 120043 
364 1 43.2158 47.1694 20.8495 9.72062 86818.1 167242 -234037 117343 -120182 178728 
378 1 41.5022 49.8373 20.8951 9.87394 58215.8 107974 -134767 -67876.5 -133440 -111848 
368 1 46.3683 47.225 21.0668 9.58524 -204751 -263974 -147463 135956 108360 37634.1 
372 1 49.5815 47.2016 20.9872 9.76401 77965.2 -51710.1 72505.9 -255660 -198910 216582 
305 1 43.4075 32.3267 23.5503 19.9567 312573 153821 691307 -307794 -27099.9 44898.4 
381 1 43.486 30.6885 26.1432 99.6803 -403760 -201182 -345380 40720.2 49815.6 166378 
387 1 44.9491 33.3874 26.1351 8.48738 -80866 -913492 -17473.3 364574 14865.3 157928 
309 1 49.7273 32.3991 23.4069 14.1972 51676 224483 845432 -69901 -110776 378820 
3195 1 49.5879 30.7535 26.0136 61.6199 -90017.8 -486838 -501860 -217965 13645.5 -6915.01 
307 1 46.5542 32.3882 23.4935 13.3794 376386 61711 92643.8 -77136.5 -51265 151913 
382 1 46.4884 30.874 26.0521 40.3912 -124355 -901677 -677632 109719 64634.4 63899.3 
389 1 48.0707 33.4516 26.111 8.64764 -202333 -207371 433533 -232636 -125160 -75479.5 
383 1 36.9848 36.107 26.1427 35.5788 -127053 -69374.9 41389.6 1018.55 -163945 247969 
314 1 38.5848 35.1233 23.6115 32.3606 -405042 193445 469454 -288314 -59793.3 -141130 
384 1 40.1003 35.9934 26.156 12.2224 333067 -32994.2 -229804 -84212.5 169003 -103084 
385 1 41.7782 33.3147 26.1856 22.617 320116 73862.2 5441.44 -96951.7 -247762 261687 
318 1 41.6204 35.0418 23.5951 12.6127 163483 822507 255178 -170510 45869.5 -54224.7 