ITEM: TIMESTEP
100000
ITEM: NUMBER OF ATOMS
5538
ITEM: BOX BOUNDS pp pp pp
0.0372549 99.9627
0.137726 99.8623
-1.16661 101.167
ITEM: ATOMS id type x y z c_csym c_2[1] c_2[2] c_2[3] c_2[4] c_2[5] c_2[6] 
11 1 40.2076 30.8091 -0.523884 98.6733 -204057 -40042.1 -330873 -318164 -108451 2340.86 
87 1 41.7396 31.6517 1.93738 45.3883 119716 -338251 -1.04952e+06 -903.163 179601 49610.7 
1 1 43.3612 30.9033 -0.422974 31.0861 -164395 -330662 -380209 4095.76 174794 -167524 
15 1 44.9111 31.6079 2.22372 16.3052 473740 -55875.5 65488.5 -136506 263589 11722.7 
3 1 46.5164 30.8642 -0.304617 32.3196 -403833 -235501 -129893 16387.1 153865 -23374.4 
19 1 48.1343 31.5531 2.29886 13.953 103418 84408 378185 26154.4 -258202 -1242.47 
5 1 49.609 30.9739 -0.425131 28.4991 -405297 -505490 -267420 135989 -35473.5 -1047.27 
1375 1 36.9284 36.3152 -0.223149 22.0751 -228014 352733 421278 -302418 85404.2 71844.3 
10 1 38.5496 33.5156 -0.368737 35.9358 288816 612480 60740.3 -484701 140561 -154480 
6 1 38.5698 37.1169 2.36094 14.6995 271153 233322 292448 -71487.8 54704.7 -28660.5 
8 1 40.1083 34.3954 2.14137 21.4292 -86497.4 116708 64433.9 -237962 -97177.5 372650 
9 1 40.0064 36.3089 -0.312047 8.52502 135408 422932 -152794 77901.1 -20749.4 65442.3 
33 1 41.6808 37.042 2.25437 9.37186 119844 -211544 225619 304891 -88740.1 -59776.5 
14 1 41.6875 33.4732 -0.41664 9.36506 29600.9 -279362 -469432 -191752 -63161.3 368428 
18 1 44.8814 33.4902 -0.32281 9.41604 301619 -2170.97 583270 -223436 -155303 29072.3 
12 1 43.2257 34.3663 2.30068 9.71444 326614 12929.7 -28773.1 18021 117641 -19183.7 
13 1 43.2285 36.1839 -0.33215 9.78512 241070 240145 28241 23545.8 232808 -41343.8 
37 1 44.9366 37.0318 2.35117 9.39348 292654 151144 262446 63464.7 9500.78 -137638 
22 1 48.0701 33.5108 -0.316398 8.47805 -11090.1 -176281 279369 266855 176111 -197758 
16 1 46.4402 34.2935 2.27888 9.15652 363804 421321 43833.7 69880.7 -293180 -48980.1 
17 1 46.4479 36.1917 -0.30635 9.67828 -439706 171455 -75704.9 -40538.7 -44205.3 278598 
41 1 48.0683 37.1171 2.28884 9.4897 -100248 -22866.3 88406.4 65915.9 -92980.4 7365.01 
21 1 49.5455 36.3117 -0.348439 8.82909 -175047 206509 315600 66096.2 22520 39491.7 
20 1 49.6247 34.3454 2.31885 9.0184 61527.2 703607 220072 -41909.7 79722.3 -266024 
25 1 36.9145 39.9094 2.42919 15.1393 628940 376287 578581 -116162 47961.8 -90024.5 
1396 1 35.2715 38.9823 -0.226302 25.6453 78412.1 383499 -158633 -53212.6 115689 248238 
7 1 38.4599 39.0241 -0.193512 9.02603 612850 65387.1 386356 236872 -51126.2 77523.1 
29 1 40.2238 39.812 2.35794 9.28839 489768 192475 248519 70165.1 -153288 -228304 
36 1 41.7019 39.0277 -0.361416 9.30679 79306.4 32769.8 124575 -13635.6 59798.2 -163457 
34 1 43.3496 39.7935 2.28292 9.2891 -267991 328585 -36479.7 111840 131587 55456.8 
40 1 44.811 38.9841 -0.254633 9.41764 -870.916 -7893.55 -94941.2 86785.5 215304 -264392 
42 1 49.6017 39.8133 2.47889 9.72873 -206776 25098 -63170.6 74034.2 -164375 146966 
38 1 46.466 39.8394 2.31752 9.41358 -457053 -107953 -35106.2 -72544.3 41171.2 143707 
44 1 48.0727 39.0342 -0.234523 8.79526 311956 -390815 -6740.12 113810 134781 2498.88 
39 1 46.4122 41.7033 -0.188928 9.47232 -374426 -436840 -176481 11848.4 -119254 59075.6 
1418 1 32.1589 44.5681 -0.367094 22.0303 286012 203.615 -60999.2 -632209 211781 -159894 
1392 1 33.8745 41.8127 -0.204745 22.5999 52692.3 79616 -189694 -244443 177257 -127573 
28 1 36.9782 41.7795 -0.186607 9.79415 158827 15809.7 531348 304645 -156534 -926.381 
47 1 33.7454 45.4313 2.42493 15.4379 722495 381014 825967 151153 -20412.1 29169.4 
23 1 35.4508 42.7475 2.48834 14.368 -49134.7 -28699.6 380273 52822.7 32650.5 53823 
24 1 35.3776 44.4892 -0.210145 9.38832 39982.3 4030.43 526649 43121.3 161519 -27214.6 
51 1 36.9978 45.3722 2.43559 8.03846 -49591.5 -271407 -288896 -322929 125832 -21180.5 
32 1 40.1609 41.7665 -0.279927 9.35562 230500 203697 397792 -114294 187975 4335.22 
26 1 38.518 42.567 2.39902 9.66342 41968.1 103093 28072.3 -135133 -57284.9 -71590 
27 1 38.4175 44.4864 -0.128659 9.27908 -470279 -35081 122634 -135167 53686.6 -59178.5 
55 1 40.0814 45.3108 2.41452 9.30569 -135921 260797 -238302 70668 78325 -20930.7 
30 1 41.7361 42.5775 2.37205 9.2877 21894.4 -69760 299133 -346474 75793 -23582 
31 1 41.5941 44.5034 -0.145576 8.40683 38466.3 -190285 -39546.4 -19778.6 64000.3 -3081.27 
35 1 43.3344 41.6809 -0.224199 9.59702 -521627 -618522 -26999.7 -209228 17224.8 164502 
59 1 43.2906 45.2612 2.43032 9.12242 -159890 -158823 13251.7 41097.2 -120816 49658 
63 1 44.8621 42.583 2.44014 9.64761 -100747 -160566 135018 164687 -29775.3 -145658 
66 1 44.7885 44.3566 -0.234767 9.41199 281934 -54493.7 6039.92 -159189 54407.3 -62951.1 
43 1 49.6617 41.6837 -0.178367 9.5797 -87265 -481323 236946 -118925 21626.3 -258717 
67 1 48.029 42.5463 2.37008 9.23452 15092.3 202376 152593 33225.4 13759.6 2885.34 
64 1 46.4466 45.3499 2.36083 10.1392 113038 63319.6 311051 80424.8 52059.4 251469 
70 1 48.0375 44.3845 -0.299622 9.5621 207155 4596.25 52410.2 -108962 8235.76 -91779.8 
68 1 49.635 45.4468 2.31658 8.45639 48739 -16931.4 414179 294493 -6443.23 -28746 
45 1 32.1163 48.0599 2.28207 17.8084 -68486.1 82774.3 840652 319675 -32607.6 -26444.8 
1414 1 30.4721 47.2176 -0.260263 59.7586 -86026.6 235017 132981 -52679.5 -85964.5 22068.3 
226 1 41.6204 49.9447 10.3154 9.55413 200489 -259749 5141.83 132756 13862.1 121641 
50 1 33.6131 47.1542 -0.361137 9.28741 489401 34676 456041 -357896 331974 100812 
48 1 35.2359 48.2342 2.33471 9.28333 363975 315850 352905 96280 -24031.5 -182695 
54 1 36.8125 47.2797 -0.241924 8.73288 153547 -58906.6 -344244 -126890 124372 -84633.7 
151 1 44.9458 49.8561 5.0312 0.479286 112294 -176236 260618 68214 -159610 144077 
52 1 38.3938 48.074 2.27457 9.37709 179743 108862 -138558 -274738 51370.1 -111230 
58 1 40.0886 47.1766 -0.182407 9.6162 -191530 -314049 -256914 38135.5 190820 22788.3 
56 1 41.7529 48.0594 2.37949 8.69553 258387 207453 102959 -80025.3 234018 -61132.7 
149 1 38.4599 49.8577 4.90567 0.400945 43648.5 -311238 358620 -73583.2 -54127.4 123678 
62 1 43.2005 47.2396 -0.18437 9.17287 -334470 168850 -271751 41272.4 129378 -70655 
60 1 44.8869 48.0384 2.37261 9.2257 -118107 144523 301501 223855 153101 -145847 
227 1 44.7984 49.8609 10.2047 9.96988 -174907 -19433.3 402861 29936.2 6109.15 94311.8 
49 1 35.223 49.9317 -0.364003 9.51292 107069 -104482 199828 -92767.4 13518.2 174823 
69 1 49.5301 47.1754 -0.296304 9.01047 -10224.5 26713.8 -10347.9 -185993 -11375.7 -20165 
65 1 46.4008 47.1772 -0.193889 9.89171 -13296.7 200012 -166473 893.804 134561 98173 
76 1 48.051 48.1237 2.39388 9.59732 -186302 -84956.6 216639 290249 -202791 -109674 
77 1 43.3448 32.3124 7.74232 43.6201 152019 490700 354602 -195231 -190225 -130778 
81 1 49.5273 32.6098 7.59601 8.96933 -69568.8 113036 667690 381085 117224 -127248 
4 1 49.5389 30.7885 4.93618 26.0457 -705603 -158582 -373454 -21914.8 -102306 103840 
2 1 46.4305 30.8429 4.96332 39.5875 -356295 -582577 507283 9713.61 -134476 42751.6 
78 1 48.0291 29.8506 7.44764 48.1059 -222046 167319 16693.5 -77407.9 177245 37399.3 
79 1 46.4469 32.5887 7.63198 12.0477 -204366 -428678 -157190 -396218 152292 309363 
82 1 36.9417 36.3397 5.01103 47.492 76061.1 -193936 163660 -234476 108351 -126722 
84 1 40.1044 36.2003 5.01613 17.9295 -138342 -255328 265279 -17701 -120680 172342 
86 1 38.6181 35.4552 7.6148 32.8933 -512448 -667042 -225208 -324004 108852 -265605 
90 1 41.7021 35.1798 7.49566 13.0769 -506344 968179 253108 -321626 -21555.1 -117314 
91 1 44.802 33.3557 4.91627 17.8084 -50991.7 -267637 752643 308532 -131604 -54887.3 
88 1 43.1876 36.0566 4.84668 8.83593 -3998.37 1549.03 14983.7 273863 43255.9 -153961 
94 1 44.7154 35.1763 7.52672 8.86077 -276212 694749 588707 181821 7263.44 -116949 
95 1 47.9379 33.4465 4.87661 0.262716 149964 -258100 406798 -85884 -40804.6 100814 
92 1 46.4072 36.0971 4.92931 0.104868 231330 47878.9 245301 384613 -203786 32510.3 
96 1 49.5568 36.1468 4.87339 0.284786 97958.4 -446733 239566 19719.5 -10608.3 -170084 
98 1 47.9006 35.2154 7.64022 9.07751 192486 -203749 388019 24784.3 -148894 39239 
83 1 36.9314 38.0185 7.6255 15.8163 -489222 -286828 265546 -303089 -188255 -56665.4 
101 1 35.4511 39.1012 5.1504 42.7378 -189768 -136801 -491596 -165476 4880.16 -29413.8 
104 1 35.3601 40.8031 7.67463 15.6423 -189209 -209087 377094 2312.33 -158273 -313607 
102 1 36.9628 41.7319 5.02794 0.124551 194671 -189770 -279480 -348870 -228471 -117464 
85 1 40.0136 38.0095 7.60466 8.64926 -115659 -312462 123604 -229572 -32143.8 141190 
105 1 38.5281 38.9203 5.01522 0.121227 141718 -43336.5 3605.21 -151659 -199861 -180183 
108 1 38.4486 40.6379 7.5686 8.66898 216066 -257385 410620 -62040.6 59475.5 -9078.31 
112 1 41.6664 40.713 7.69917 9.34687 71075 -466841 -143226 165846 -139284 289812 
109 1 41.7501 38.8195 4.94639 0.272723 19149.9 -27479.4 309184 260080 -290934 186320 
89 1 43.1787 37.9964 7.56201 9.23371 83089.4 412500 173990 343782 -243985 213160 
113 1 44.8845 38.8852 4.9116 0.169299 -19366.3 504538 279349 298167 -115086 73644.4 
116 1 44.8726 40.8126 7.64408 9.18136 -298352 -283530 -349198 273803 -168644 87984.5 
110 1 43.3141 41.6236 5.1336 0.507331 -502153 307855 283756 -18831.1 -107353 52619.9 
97 1 49.5439 37.9428 7.55375 9.83823 358754 324945 390121 177625 84075.7 64821.5 
93 1 46.2933 38.0092 7.58622 8.9564 307050 483401 230395 141979 -35455.9 39944.3 
117 1 47.9855 38.9 4.9619 0.0798995 -589020 59262.1 190479 -61981.5 76387.3 194164 
120 1 47.9857 40.785 7.71486 9.59259 68753 314739 84435.4 3065.69 -73805.7 119388 
123 1 32.3485 44.547 5.22868 40.1101 -85584.9 62603.8 42933.6 -174737 106248 759.201 
99 1 33.8974 41.8774 5.08434 42.5423 -58465.9 -111735 -319762 114278 115539 -29582.1 
100 1 33.8319 43.4318 7.77778 13.9654 -251854 167982 649792 -109778 -226988 -173755 
103 1 36.865 43.5113 7.54067 8.81775 -312134 -226834 92197.7 149811 139306 -27981.9 
127 1 35.4004 44.5792 5.01038 0.482844 -482792 28582.1 -219478 -239203 -245427 -247647 
106 1 40.2736 41.5425 5.01684 1.00297 165845 120842 99525.9 -115513 500.769 -241249 
107 1 39.9823 43.3105 7.58832 7.87333 291464 224190 241530 137262 167130 67548.2 
131 1 38.4385 44.4082 4.98285 0.195719 -481101 175923 -158879 -183233 11964.8 149871 
135 1 41.6147 44.4111 5.00257 0.326706 380379 266481 309439 -2823.33 67035.3 -31215 
111 1 43.2704 43.4558 7.71707 10.1976 119923 -212391 297124 94741.8 111945 45650.3 
139 1 44.8748 44.4304 4.96385 0.291171 88882.4 -50669.5 -10093.8 233906 -187070 59073.8 
114 1 46.4794 41.7253 5.05992 0.23914 -385098 230677 267989 167752 74617.5 69327.9 
118 1 49.5451 41.6634 5.06066 0.190598 -183025 182808 310524 -180175 -140192 25895.3 
115 1 46.3836 43.5398 7.63745 9.02301 -103594 -224736 296428 -75228 -26036.9 -87408.2 
119 1 49.5903 43.5109 7.77919 9.96869 149353 -107680 332462 262319 32058.2 -145276 
143 1 48.0452 44.5165 4.99755 0.283589 -297523 12646.7 452636 -21577.4 13788.4 -131359 
121 1 30.6453 47.3076 5.09332 55.2685 -776774 -292233 361099 -362813 -4457.8 41007.9 
126 1 32.0989 46.2613 7.86401 15.0846 390753 -15382.1 864417 -528967 -69800.6 -65841.8 
122 1 30.6814 49.0101 7.79329 28.6477 -388376 199805 551656 -49362.2 226867 95606.7 
125 1 33.7002 48.825 7.66934 8.22135 -175484 84752.1 11124.3 -121016 -209918 -122591 
124 1 33.5855 47.3076 5.07222 0.915236 -344252 -488074 352359 -185474 -163256 -462658 
128 1 36.8224 47.2591 4.9333 0.330555 316633 -429843 521706 -289917 123757 -23887.1 
129 1 36.8139 49.026 7.67991 9.11145 -110162 -66352.6 484833 -49838.3 139945 130998 
130 1 35.329 46.1872 7.65041 8.73396 549679 -22841.4 592485 319934 113380 -231862 
220 1 49.6516 47.1116 10.3005 9.81968 369687 317644 464013 -162501 -224839 36120.2 
132 1 40.0639 47.2148 4.97047 0.175662 407487 -337599 272005 86518.5 11495.1 610.075 
133 1 39.9877 48.9856 7.62217 9.47231 75513.5 -93609.5 655539 -147362 -2546.3 -36628.7 
134 1 38.4849 46.2197 7.60724 9.04312 21604.8 177715 453289 -110665 178221 141992 
217 1 46.4035 48.923 12.8935 8.96404 -16048 -228489 291866 55561.9 -31813.6 -74236.8 
138 1 41.6104 46.2235 7.60104 9.31038 67584.6 357786 224671 44620.2 -106569 48345.5 
136 1 43.342 47.1627 5.07182 0.278379 126345 -27100.7 182703 -228.759 12394.2 -106582 
137 1 43.1803 48.9589 7.58384 9.46921 183150 -171135 -199770 163624 -181901 151.081 
142 1 44.7914 46.2424 7.73504 9.51395 -20090.1 -159550 48924.7 -13856.9 -148127 16605.9 
222 1 47.9416 46.2231 12.8722 9.63119 -82459.3 -472626 235027 -16866 -163626 -165743 
140 1 46.4652 47.1899 5.10319 0.282868 -281957 -496972 233155 382406 -70613.1 -161969 
141 1 46.4032 48.9385 7.59139 9.12852 204924 -127326 -500981 -124746 -141964 -60968 
144 1 49.6218 47.2289 4.94248 0.139733 186956 -139411 189078 -162292 -158301 -54644.3 
145 1 49.6303 49.0226 7.58389 9.54576 44338.9 -464124 377989 16321.5 -129852 10012.3 
146 1 48.0582 46.2166 7.63904 9.59087 428221 70161.6 349833 79452.1 -100712 -105299 
153 1 43.3819 32.4605 12.8745 19.0279 -254487 361296 839756 -263537 -252793 -174049 
156 1 49.507 30.7503 10.2038 23.147 391760 -148578 368756 -52815.4 136664 21229.7 
157 1 49.5717 32.4595 12.7679 14.3602 133145 38151.9 132491 19071.9 -72884.1 131860 
155 1 46.4057 32.4995 12.8335 15.3853 -253975 306202 607037 -37659.3 49157 -15802.8 
154 1 46.4729 30.792 9.94752 36.5302 -67772.6 -541886 -286863 92739.7 48947.8 449191 
158 1 36.9794 36.1301 10.2039 38.3763 3740.06 21691 391974 -55502.1 -334.767 111383 
160 1 40.137 36.1235 10.1405 11.57 238458 202969 302307 53746 -245170 130415 
162 1 38.6121 35.3953 12.7824 29.1895 -365192 -426890 367199 -175606 40929.7 18590.8 
163 1 41.7612 33.369 10.3099 31.9803 475603 48861.7 473624 -74213.2 -52263.2 -85738.1 
166 1 41.6837 35.2565 12.8426 11.683 -59804.8 485983 553428 -176405 43978.7 -67640.8 
167 1 44.9593 33.4143 10.2287 10.9591 207291 -240456 142633 60242.2 91247.9 -104847 
164 1 43.2552 36.1669 10.1893 8.89983 3758.59 567649 524504 -132381 24824.6 132435 
170 1 44.8145 35.2582 12.8099 8.85432 -10242.3 6575.57 139541 133942 103003 138686 
171 1 48.0027 33.4788 10.2299 9.00671 -472980 -170023 -366065 -150969 -27910.3 93316.6 
168 1 46.3453 36.187 10.2155 9.59715 -278551 -232293 183932 -83480.4 222432 11726.6 
174 1 47.9631 35.2038 12.8357 8.65571 -45762.5 364966 82071 -167866 -31040.7 -77451 
172 1 49.5584 36.1352 10.2095 9.50797 195721 -85960.5 126103 -16959.3 21580.6 38205.1 
177 1 35.386 38.9346 10.292 25.4581 9766.56 174589 208777 -130920 11968.2 -85232.4 
159 1 36.9787 37.9936 12.9369 14.888 71115.9 89015.7 914856 67310 237177 204092 
180 1 35.3795 40.6479 12.945 15.3377 114657 160286 693853 89195.2 -1122.13 -39707.7 
178 1 36.9422 41.6531 10.2394 9.59236 276494 262390 464451 107272 -203405 -120271 
161 1 40.1057 37.9614 12.9791 8.88355 -101207 -594565 98175.4 -216817 -95021.9 96359 
184 1 38.5673 40.69 12.801 9.59351 24647 410629 261844 158666 55846.4 -48243 
181 1 38.5158 38.8139 10.2582 8.80983 58138.8 514217 242465 128559 101570 -224967 
188 1 41.6176 40.6493 12.8718 8.77245 -81230.9 102979 120303 -42807.3 -103325 -220975 
185 1 41.5998 38.9745 10.2632 8.79867 -125880 468798 356747 118321 -7589.37 -34090.2 
192 1 44.8899 40.8272 12.8572 8.6183 41493.6 198364 332215 221889 4784.3 72042.7 
165 1 43.2676 37.9457 12.9631 9.83808 -152456 186647 284167 268442 150252 -146314 
189 1 44.6985 38.8814 10.1885 8.88613 23700.5 -188961 266848 71356.1 63512.5 -74252.1 
169 1 46.3457 37.976 12.8693 9.45471 -213501 261598 295492 -110987 -73234.4 -198085 
196 1 47.9923 40.7742 12.8334 9.02474 -191552 104853 99969.2 -108212 279786 218130 
173 1 49.5256 37.9788 12.8925 9.89332 65299.1 -9119.94 71452.4 26080.4 -7554.18 50563.2 
193 1 47.9554 38.8461 10.1875 9.81096 469116 -98149.6 347400 -225086 -38547 88802.7 
190 1 46.3435 41.6735 10.2373 9.09415 -592487 140595 -193302 -49421.5 137453 78814.9 
199 1 32.2871 44.5002 10.4329 22.7677 -97996 79343.6 128664 -215004 -29052.8 206313 
175 1 33.8497 41.6614 10.4356 23.6637 -203474 -208621 -86438.6 -23080.4 -101014 -55241.3 
176 1 33.8129 43.4267 12.984 15.0685 222508 328344 369007 -327137 -201510 -35858.8 
203 1 35.3759 44.3387 10.3365 9.58412 -33486.1 323338 266488 149847 -149606 -173376 
179 1 36.9874 43.4407 12.9195 9.18361 322698 307102 333755 117779 -132797 -85747.3 
182 1 40.0831 41.7301 10.2951 8.5179 -34802.6 41419.3 61589.3 81878 188567 260395 
183 1 40.1205 43.572 12.9082 9.45126 -201271 298904 -130848 36678.2 -32677.5 -218408 
207 1 38.4572 44.4416 10.1595 8.90033 -117891 -44471.4 395684 74901.3 73190.2 135106 
211 1 41.6086 44.4876 10.2247 8.99667 313093 130206 288246 -201863 99055.1 81586.5 
186 1 43.2809 41.6691 10.2003 10.1835 -267190 -37825.4 -278911 80129.2 -143598 35662.8 
187 1 43.2636 43.4699 12.7932 10.3339 3958.03 185231 160060 152581 127570 -9550.35 
215 1 44.9332 44.4798 10.3603 9.36742 70152 23952.3 -235877 -140594 185965 63227.1 
194 1 49.5215 41.5555 10.3255 8.66756 -23047.1 111450 -106134 -127061 -32695.7 198151 
191 1 46.4544 43.5562 12.9443 8.67738 -747280 -399582 -172587 -142618 51715.2 114977 
195 1 49.5153 43.5023 12.9856 8.92147 -109545 94723.8 194366 70644.2 -123420 14856.6 
219 1 48.0046 44.3519 10.3432 8.94633 -61668.3 202800 -110961 9152.98 121764 -167657 
202 1 32.1634 46.2742 13.0836 15.5362 84499.4 114333 209855 -379714 -236272 300619 
198 1 30.5943 49.0036 13.0495 31.9547 -276588 333998 142066 4035.3 27528.6 -381257 
197 1 30.6621 47.2442 10.5771 39.8563 16242.8 7370.63 -56740.5 59302.3 -46081.6 -209578 
223 1 32.1764 49.9279 10.4702 12.1238 -440572 -27825.3 474923 151963 -139349 217622 
206 1 35.2978 46.1991 12.8856 9.80269 353213 221206 389679 -51082.6 -184919 -12646.8 
201 1 33.6634 48.9542 12.9952 8.84177 120775 260302 343004 -167741 -217666 52043.5 
200 1 33.7852 47.1627 10.3691 8.79237 264816 -282757 103505 -281840 -305773 67631.7 
205 1 36.8034 48.9391 12.9734 9.15751 -81904.9 114388 458494 -49822 142193 -15081.5 
204 1 36.923 47.2369 10.2458 8.73028 -410185 290811 315622 138204 -45510.4 17064.2 
221 1 49.5778 49.0425 12.8913 9.50364 26286.9 -210171 119508 -140186 161751 212290 
213 1 43.2329 49.0172 12.9332 9.39008 124162 -391585 144860 -238496 -46041.5 -46791.9 
216 1 46.3781 47.2109 10.229 9.1108 389223 -161983 64266.8 -122394 -148614 -64544.5 
214 1 41.7103 46.3403 12.8466 8.85976 94528.7 -36112.8 -160355 -148971 15611.4 116973 
209 1 39.9298 49.0019 12.873 9.12071 88518.1 -40712.9 -704147 87676 3938.7 -8966.26 
208 1 39.9646 47.2212 10.3782 9.39439 -543047 166349 236125 35083.3 -56156.1 -103026 
210 1 38.4311 46.2118 12.9197 9.22655 1031.51 -222848 18615.2 -60359.8 36961.4 107376 
218 1 44.8289 46.2573 12.8694 9.40003 -422839 -235259 -64308.1 -84810.5 84305.2 -407437 
212 1 43.1023 47.2292 10.2087 8.84506 -29970.5 -241965 48909.1 -176495 245524 20056.4 
150 1 41.6227 49.8729 5.05627 0.12009 122241 -368097 356387 -389347 -126042 118007 
152 1 48.07 49.9412 4.99338 0.238979 46787.5 237123 -256528 62810.5 -85473 -89540 
224 1 35.1824 49.8647 10.2515 9.48942 -45245.2 -263647 450116 -187721 113830 25373.1 
53 1 38.434 49.9794 -0.224706 9.73026 -127056 -594338 165869 -42884.9 30123.1 43215.2 
46 1 32.1238 49.9051 -0.363419 15.0232 -10177.3 663807 149108 94874.7 134491 45602.3 
228 1 47.9457 49.969 10.2364 8.96728 -143329 -139002 290942 65703.6 -52730.5 182332 
61 1 44.8553 49.9862 -0.224929 9.66528 -25962.5 -130696 97555.3 162249 190055 -47706.8 
57 1 41.5968 49.9306 -0.179059 9.49957 27893.3 -379147 -96945.5 194942 127614 -151478 
148 1 35.2387 49.9089 4.96766 0.180454 474829 -493497 253410 -51371.5 45465.2 -139701 
147 1 32.0537 49.9036 5.21055 17.2733 -141946 -628989 282467 87371.8 -97724.5 62782.2 
1503 1 47.9888 49.9581 -0.230487 9.32672 64849.6 44628.8 267903 -112886 -119174 -132590 
230 1 43.3472 30.7898 15.58 106.617 51496.9 -293252 -266665 46923.8 -40592.9 -105630 
229 1 43.4509 32.6144 18.0769 16.6321 162963 77843.9 536528 -443428 -171205 51053.5 
232 1 46.49 30.7702 15.5407 49.0437 330211 -217754 -245270 110918 -761.054 -118326 
231 1 46.5422 32.5429 18.085 13.0589 -96727.4 59542.4 905185 -107842 14354.8 -266867 
3049 1 49.5628 30.9072 15.4088 53.253 -79747.3 -453396 -633996 81728.7 -46146.7 -52234.2 
233 1 49.6362 32.4 18.0682 12.532 -39623.9 393664 561846 73790.7 52224.8 -253624 
234 1 37.203 36.2225 15.5065 46.4954 5381.67 -323818 337650 31941.1 123669 -150005 
236 1 40.2479 36.1852 15.5199 10.287 -163618 -752164 276773 285068 -118458 114825 
238 1 38.6723 35.0762 18.2992 32.8847 -236249 270654 569907 -361322 -70757.6 -281167 
239 1 41.7417 33.4608 15.5354 21.9147 382773 139.693 740983 -175284 -138527 22103.2 
243 1 44.9406 33.424 15.3862 9.4457 322364 -341351 214325 104182 50932.3 -93020.9 
240 1 43.3682 36.0832 15.5552 8.45147 -311293 5723.33 131690 43824.9 56895.4 39651.6 
246 1 44.9555 35.2335 18.1454 8.83018 353454 71121.1 331826 -79039.5 -78778.2 134344 
242 1 41.6835 35.3083 18.1282 11.6352 -182139 -145587 155955 -209299 45522 26662.5 
247 1 48.0522 33.506 15.4707 8.45495 -13407.2 -596413 226469 209285 -20128.9 21337.6 
244 1 46.4458 36.1358 15.5191 9.95081 -861579 -337634 272707 41906 150672 -52243.7 
248 1 49.4875 36.2036 15.437 8.44015 -335032 -165292 -182180 -132233 44218.1 -30432.6 
250 1 48.1275 35.1718 18.1078 7.71991 -33777.9 452151 209921 -298308 67397.2 16198.1 
253 1 35.6774 38.9203 15.6592 27.3525 391.105 -41170.3 -43858.6 -37595.9 -63081.7 128444 
256 1 35.2994 40.7336 18.2361 14.4813 -5614.49 448992 471923 -500731 -213006 116899 
235 1 37.0586 37.843 18.1717 13.8506 -256212 589389 306311 -515872 -166797 18548.7 
257 1 38.7285 38.8793 15.6168 7.79517 -417373 -56283.5 462207 22029.8 215428 65976.3 
237 1 40.0748 37.8703 18.2119 8.46764 -179232 115988 187421 341432 -192093 110181 
260 1 38.3756 40.6454 18.3051 8.38645 377141 179994 219407 168438 -132838 -41742.5 
261 1 41.7314 38.8238 15.4802 9.14953 -831573 -370459 -345479 -248440 -84869.4 -215444 
265 1 44.8516 38.8657 15.5037 9.67941 -654256 -88126.2 -29540.8 9863.95 -118596 -77883.6 
241 1 43.2466 37.9194 18.0981 9.30751 141963 -114342 248533 169576 30316.2 -67842.7 
268 1 44.8279 40.7494 18.1475 9.53185 -49057.4 295102 200194 -34119.2 -71221.4 24069.8 
264 1 41.7033 40.6202 18.0433 9.49402 473539 574871 517246 158596 177518 66352 
262 1 43.2085 41.5671 15.4968 9.0147 133605 94468.5 256665 -219897 188905 154571 
269 1 47.9187 38.9128 15.4101 9.56749 -84078.3 -250856 104441 265471 150506 -114414 
272 1 47.9945 40.7305 18.0988 9.07406 -46482.1 -82256.2 133742 -157634 -115691 102838 
245 1 46.4447 38.0235 18.0801 8.85556 150685 97556.3 -184238 -340723 -166443 -151090 
249 1 49.7076 37.9284 18.0385 8.26161 23058.2 126412 520035 111413 36757.8 -212556 
270 1 49.7092 41.6062 15.4953 8.72702 8164.26 -120997 60412 65664.7 93275.9 147789 
275 1 32.2098 44.5932 15.6238 29.4861 -209646 -504982 -369807 -129165 -161615 314603 
254 1 37.0424 41.6586 15.6115 8.48146 255463 -67104.2 607920 80983 -56839.4 -29775.6 
251 1 33.8302 41.5736 15.5621 25.1108 101686 46302.1 94342.6 -293016 -58385.9 156041 
279 1 35.321 44.263 15.5762 9.13419 444526 318508 382243 -12222.6 -233595 -81846.5 
255 1 36.8577 43.4015 18.1896 8.92004 462588 9089.11 -44025.9 139320 -117072 -11902 
252 1 33.5705 43.5234 18.1967 13.5178 375602 411093 786302 -272334 -66907.3 61872.8 
258 1 40.077 41.6225 15.4581 9.88581 -420868 -61714.4 396139 -106995 -1050.24 -80314.7 
283 1 38.5236 44.385 15.4934 9.39646 -162799 -149520 -39828.5 1064.81 -110824 53277.3 
259 1 40.0164 43.4175 18.1032 9.01027 384237 527883 484332 96008.1 28126 52464.9 
287 1 41.6441 44.4199 15.3854 9.65388 -108519 68224.5 92948.2 -273993 -231906 -168605 
291 1 44.8126 44.2892 15.4942 8.50246 18929.6 -160138 498015 19610 133695 -79664.8 
263 1 43.1827 43.5681 18.1717 9.16721 325955 10043.7 563439 -7701.54 14332.3 37884.3 
266 1 46.4368 41.6046 15.5274 9.17294 129793 -487982 192084 202220 -174703 77601.2 
295 1 48.0096 44.3225 15.5869 9.06411 124598 200509 -65442.3 -124851 136446 -111644 
271 1 49.6366 43.4623 18.1392 10.1369 38445.2 -39383.1 260492 -91156.8 -197798 -39420.5 
267 1 46.4401 43.4855 18.1859 9.24249 249192 230640 27666.6 -54234.7 -117974 36503 
273 1 30.6188 47.1706 15.7241 34.4198 -305616 -352626 256038 271391 -32543.3 -83089.3 
278 1 32.0916 46.2737 18.2864 14.4584 16904.5 12519.1 435779 -18332.1 -19575 -14326.7 
274 1 30.5797 48.9767 18.3288 34.046 -20865.8 327944 625633 81213.1 98102.6 20722.4 
376 1 35.1952 49.913 20.8593 8.25963 -186967 -134364 -139849 -13612.9 -483973 -39440.1 
276 1 33.7341 47.157 15.6828 9.47187 178854 158925 345154 -358826 -186219 -23571.6 
280 1 36.8368 47.0722 15.5739 9.39256 27736.1 400609 154649 157145 9932.06 -40542.8 
282 1 35.2586 46.1684 18.2439 9.16289 425465 327804 -47759.2 67367.9 -151971 112490 
281 1 36.8891 48.9334 18.1155 9.66597 -225780 17409.9 359720 226866 -175094 30190.1 
277 1 33.7105 48.9776 18.2777 9.30135 534498 573299 269086 -107785 -69098.7 -126617 
300 1 35.276 49.9649 15.631 8.93493 651928 172509 91802.6 -166535 -52412.6 142036 
284 1 40.0068 47.2248 15.4207 9.62668 107249 -121731 139171 16408.2 -57565.3 -93962.4 
285 1 39.9719 48.9687 18.0652 8.88097 -384767 148541 -116341 -63731.4 -162740 99453.1 
286 1 38.4433 46.2417 18.1604 9.9524 -44940.9 -15504.7 100429 123991 11512.4 -34353.4 
418 1 41.7844 49.8907 26.0443 9.17051 -156969 318382 308716 103878 -70422.6 71402.1 
290 1 41.5916 46.2145 18.1025 9.3146 219227 71200.7 566331 203162 99257.5 -103240 
288 1 43.2607 47.041 15.4929 8.70105 -326248 112805 163155 -284640 -40333 47753.7 
294 1 44.7926 46.208 18.1766 9.10375 127725 -130431 150356 -215206 89063.9 160823 
289 1 43.1503 49.0285 18.1369 9.45146 -80113.2 134407 154957 158598 302683 -106815 
379 1 44.8518 49.9304 20.755 9.12629 -185259 -142926 -122573 202086 33989.5 -53020 
292 1 46.2781 47.0508 15.5253 8.4744 -172535 116965 176038 8098.68 -68950.7 31296.2 
296 1 49.6133 47.092 15.3971 9.6907 501747 410816 538223 83073 -49894.5 102292 
293 1 46.2954 48.9466 18.1638 9.2385 11441.4 -373090 -188674 131649 -145773 -67346 
298 1 48.0567 46.2966 18.1118 8.57719 230383 88000.2 242095 -80115.5 -231120 -33598.5 
297 1 49.6088 48.9987 18.1411 9.10003 361078 -35042.6 189830 5268.28 126942 150684 
373 1 49.6103 48.9458 23.3866 10.0615 306565 -56394.5 428383 125455 165623 14141.3 
306 1 46.3189 30.6913 20.8786 55.0975 382082 145251 201027 73655.1 -65371.6 -128744 
302 1 41.6134 49.9606 15.4623 9.81183 -210067 -83917.6 248633 -194444 105195 -8111.58 
310 1 37.0565 36.0944 20.8359 44.8921 -59959.3 -20619.3 41972.9 -128586 -70772 8034.24 
312 1 40.1287 36.1397 20.7903 12.1908 -101434 -474062 -23479.6 8756.06 -164364 68462.4 
315 1 41.7063 33.5432 20.7613 27.3683 -120842 -430295 637668 -178080 66043.9 -113388 
319 1 44.7607 33.3986 20.8064 11.1813 181333 -137835 134472 99320.1 -216505 -107287 
316 1 43.2847 36.1356 20.7837 9.19929 49295.7 -394369 470165 50311.2 -110147 57996.3 
323 1 47.942 33.4359 20.7626 8.95054 386447 -86880.5 211222 182069 -83249.1 51410.9 
324 1 49.5406 36.1464 20.8372 9.21161 -289113 -320498 211225 333145 -105988 -244394 
320 1 46.4804 36.1307 20.7442 9.31256 -358074 -373465 149258 15279.9 -154291 -16197 
329 1 35.4353 38.8709 20.7362 31.9322 -167728 417115 308462 -173444 -48392.7 121522 
333 1 38.4553 38.8704 20.8889 9.3317 162318 398694 20607.3 80118 -138934 56290 
337 1 41.699 38.8123 20.8071 9.47156 2308.85 143871 406827 23441.2 -100323 33425.8 
341 1 44.8183 38.8312 20.7268 8.56709 -172927 24941 495335 -111029 119675 49928.6 
345 1 47.9484 38.7831 20.6335 9.01472 -223365 -358655 150777 -118148 -143604 152596 
342 1 46.4033 41.6045 20.75 9.27213 76308.2 213221 219456 -116496 -25727.7 31924.9 
351 1 32.3697 44.4812 20.9564 28.8918 -679260 -508388 -14742.3 -50573.6 58003.6 -29917.7 
327 1 33.7545 41.7207 20.8985 24.8993 -75525.5 -96450.7 366144 -108128 33907.9 -85362.7 
330 1 36.8711 41.6927 20.8196 8.78137 185057 102454 -69963.6 281439 -71094.3 -16222.5 
355 1 35.3249 44.3655 20.8154 9.22349 -442590 -289356 114584 170846 228874 210735 
334 1 40.0577 41.6598 20.7914 10.1809 -105061 109261 389544 -17840.8 -30299.6 99322.7 
359 1 38.5078 44.3651 20.7446 10.0211 -45633.6 10629 556998 130175 -71038.2 -50704.5 
338 1 43.1561 41.6375 20.7993 8.82011 38555.2 264240 615251 -186298 206420 79197.7 
363 1 41.6279 44.4098 20.8489 9.63413 -478050 55444 446892 -98645.8 99637.4 -71663.3 
367 1 44.7075 44.3989 20.8337 8.79897 -327240 -185682 148433 -4301.03 -42094.3 124069 
346 1 49.508 41.5394 20.8076 8.62794 334344 448567 8254.77 214092 -130294 68494.4 
371 1 47.8774 44.451 20.7184 8.96938 450453 261579 285836 -149174 -153770 -136279 
349 1 30.8148 47.233 21.0048 30.1837 -445547 -241547 408545 -78377.9 95082.9 22606.6 
375 1 32.2157 49.8786 20.9995 11.9657 -499620 112080 372590 -220315 287334 -14441.3 
352 1 33.8006 47.1036 20.8963 8.98768 -342167 -327255 269030 -112255 2931.68 -126680 
356 1 36.923 47.1071 20.7306 9.83481 -93547.9 292462 6378.35 -3434.7 27811.7 -168651 
378 1 41.6108 49.9331 20.5963 9.25464 165842 -137129 111676 -128344 277948 -173816 
360 1 40.0662 47.2483 20.6948 8.61164 -173734 111554 280127 -85179.2 38072.3 -35488.8 
369 1 46.3763 49.0112 23.3646 8.86478 -242329 -522272 26605 -345553 -33837.7 32565.5 
364 1 43.2232 47.0928 20.7727 9.32296 -281809 -3812.85 226884 66522.5 115813 -102998 
374 1 47.9837 46.2924 23.3449 9.20125 128134 -59450.2 -284387 -85283.6 96287.7 166367 
420 1 48.0759 49.9261 25.9871 9.94879 84758.2 -288733 -6033.77 -131784 -4192.24 29647.4 
368 1 46.3093 47.1492 20.8258 9.09197 -330433 -424872 -105618 -5349.53 -69813.8 126811 
372 1 49.5272 47.1414 20.7139 9.22047 291348 -383338 -120443 89736.3 15431.6 15648 
414 1 49.7075 47.1982 26.0018 9.99965 -54331.7 -255471 420443 -328051 -65243.3 -75171.6 
305 1 43.2669 32.51 23.5015 18.3627 152892 356235 705052 -290009 36582 -173939 
381 1 43.2339 30.806 26.1273 108.285 -356312 77593.1 -220271 173943 11201.7 98899.3 
309 1 49.4837 32.4224 23.4179 14.1345 383137 122114 635270 -97161 -154576 -62152.6 
307 1 46.3666 32.5874 23.423 15.0934 -49443.7 -65710 581076 -165498 -146064 23168.3 
382 1 46.2503 30.8892 26.0541 34.6789 30434.6 -329011 15878.2 -120129 7364.39 -62497.9 
3195 1 49.361 30.7442 26.0383 67.0772 -40627 -391265 -349719 1858.7 -13801.3 38373.5 