ITEM: TIMESTEP
10000
ITEM: NUMBER OF ATOMS
5538
ITEM: BOX BOUNDS pp pp pp
0.0372549 99.9627
0.137726 99.8623
-0.71067 100.711
ITEM: ATOMS id type x y z c_csym c_2[1] c_2[2] c_2[3] c_2[4] c_2[5] c_2[6] 
11 1 40.1206 31.1069 0.339964 97.112 -280122 -305816 22917.3 -123092 -317561 -86822.8 
87 1 41.6483 31.8632 2.7822 50.8421 -21946.2 -278861 -470642 -9967.67 -217799 -16658.9 
1 1 43.2598 30.9493 0.190267 32.4587 164564 -390647 275413 -239166 -162883 28185 
15 1 44.781 31.7499 2.90158 16.4053 512537 -102255 -118597 41091.7 19309.2 71365.7 
18 1 44.9127 33.4325 0.289665 8.71925 -34860.4 168315 251732 -244188 85490.7 27612.9 
3 1 46.4871 30.7784 0.316951 35.0958 -355135 -349754 424399 28678.6 -258123 -7570.96 
19 1 47.9863 31.7192 2.90936 14.8901 488952 -96187.7 -158864 79175.7 -34969.3 -114420 
5 1 49.5214 30.7642 0.337785 33.1168 -34519.5 -107668 448732 -26733.2 47149.3 -91085.9 
22 1 47.9991 33.4626 0.232124 9.348 -125184 248190 168476 66045.1 -216787 69065.6 
1375 1 36.9514 36.3992 0.0463671 21.694 154010 -62246.2 223788 -94917.6 256140 115186 
10 1 38.5899 33.7195 0.223053 33.7345 -75593.3 -163126 87099.8 -228641 216647 -78093 
6 1 38.4442 37.1832 2.78407 13.6808 284515 -28901.3 646548 166348 203711 215286 
8 1 40.1784 34.619 2.7618 15.9199 126140 29934.8 -100183 62491.9 77609.3 252622 
9 1 40.1967 36.3349 0.199945 8.92519 175532 -330219 26948.7 -159348 93076.1 87693.9 
14 1 41.7291 33.6177 0.273513 9.31011 -234545 -595929 -251020 -210153 -175144 97168.9 
33 1 41.6197 37.3677 2.84714 8.25925 705433 -87177.5 423119 20914.3 -232543 -219423 
12 1 43.3435 34.5495 2.79824 8.94688 296019 404380 -181048 -121940 30907 195707 
13 1 43.3131 36.2868 0.201387 9.70792 -146493 62628.1 403129 -252082 -149730 138565 
37 1 44.8828 37.1924 2.88997 9.44796 216754 -124061 104049 -159097 103026 -183196 
16 1 46.4806 34.465 2.86924 8.92075 103002 479900 318394 171902 -144788 -3828.15 
17 1 46.4752 36.2506 0.269619 9.46031 -111383 -306197 154695 94445.4 78037 54342 
41 1 48.0488 37.1483 2.90087 9.13359 -237318 -443457 -189070 199512 -80851.3 -152071 
21 1 49.642 36.1785 0.0911449 9.9893 -50134.1 -70015.6 131021 68334.9 -218334 136746 
20 1 49.6539 34.4539 2.80062 8.87667 143066 266979 480613 42299.5 9613.24 -105857 
25 1 36.9262 39.894 2.84112 13.9835 -200921 86877.3 278018 -214636 111634 -24665.5 
1396 1 35.4864 39.0862 0.215353 21.0589 -158035 18133.2 219365 133686 -7872.08 132365 
28 1 37.0257 41.8811 0.18603 8.36058 -322402 266201 152839 -107274 -56762.7 -194929 
1392 1 33.9703 41.8978 0.214532 21.8833 -115351 287461 -122803 -233252 162576 -255351 
7 1 38.574 39.0424 0.233685 8.91971 4155.72 413909 268464 -59364.4 123577 67221.7 
29 1 40.002 39.959 2.87945 8.62455 141807 -476984 216278 686099 -88983.3 -39542.7 
36 1 41.6914 39.0182 0.11264 9.64505 70670.1 -60135.8 275049 -321984 24382.7 28180.7 
32 1 40.1204 41.8392 0.222657 8.8363 -501514 32200.9 4542.65 148907 -39860.1 -171732 
34 1 43.2873 40.0115 2.7847 8.96988 567258 -47005.7 165239 -141857 156858 119003 
40 1 44.9241 38.9341 0.248274 10.1165 237275 -171226 404852 -131018 177809 87648.2 
35 1 43.2661 41.7208 0.209056 8.92759 -24771.2 25439.4 -105079 -121867 41547.6 97466.3 
42 1 49.7497 39.9589 2.80913 7.49324 -135828 218589 137738 219521 -112745 -19863.7 
38 1 46.5692 39.9052 2.8449 9.26978 400640 54129.3 201129 -74789.1 10342.7 236302 
44 1 48.1533 38.8575 0.264861 9.0217 -427900 -242189 166479 -98470.4 82784.6 20499.6 
39 1 46.4349 41.6614 0.252097 8.74719 -242762 102193 87270.3 60292.6 -178662 77388.7 
43 1 49.526 41.6771 0.162111 8.56854 309521 93769.2 -227748 2517.57 248234 -180364 
1418 1 32.4408 44.6551 0.188778 20.3738 -103677 329504 63015.7 -476725 114551 311872 
47 1 33.7544 45.5475 2.96699 14.7036 255401 424163 794264 -123863 2118.63 109467 
23 1 35.3601 42.7027 2.81664 14.099 341151 516331 299320 -241425 -169866 -134250 
24 1 35.4932 44.6481 0.184815 8.9762 -297594 85826.5 147174 -66546.7 -177504 168637 
51 1 36.9041 45.4507 2.79201 8.56229 400712 163941 120326 -45994.1 -6849.79 -186737 
26 1 38.5296 42.5476 2.78962 8.18853 136036 29622.1 -133072 417453 -42921.9 30224.2 
27 1 38.5864 44.5372 0.216557 10.1976 -334593 -59645 -83308.2 -107322 -111662 40948.3 
55 1 40.0843 45.4493 2.81909 9.05363 277133 268911 754.74 156623 43731.4 -68731.8 
30 1 41.6892 42.7158 2.82979 9.77842 247605 166000 245417 175726 -617.479 -59037.7 
31 1 41.7619 44.5697 0.226447 9.48458 121800 22302.9 210983 -314235 -72957.2 -80882.8 
59 1 43.3125 45.4348 2.8826 9.73167 88656.3 -136634 -74671.4 117864 -67236.5 63804.4 
63 1 44.941 42.7257 2.88701 9.04916 343428 -160089 186479 -115757 95676.2 -62057.4 
66 1 44.9737 44.421 0.218037 8.99336 -53272.5 255584 245606 -74872.4 77167.6 -121684 
67 1 48.152 42.6651 2.77355 9.40589 244939 -356798 346749 -183564 69515.5 -363169 
64 1 46.5101 45.4185 2.82279 9.52272 -90691.9 -314483 -83992.6 -188709 30097.3 166187 
70 1 48.0473 44.5296 0.0614961 9.55169 -281604 82905.5 229263 62707.2 -210328 -115997 
68 1 49.667 45.2807 2.70137 8.86297 34963.5 -380158 -58418 -88550 279361 184739 
45 1 32.2425 48.247 3.03358 18.9489 -55740.4 72070.6 536817 184271 -13003.5 -72461.9 
1414 1 30.7126 47.4278 0.420712 56.8613 -7836.59 335938 71754.9 -212441 -14093.4 120409 
213 1 43.3051 49.0922 13.2236 9.34296 244052 -269787 424109 195427 10871.4 -116176 
50 1 33.8058 47.34 0.277606 9.12891 26152.6 -90431.4 242026 -380093 -88424.4 128266 
48 1 35.3966 48.197 2.87397 9.15733 188516 58217.4 202973 102677 -62353.6 273047 
54 1 36.9306 47.3606 0.204449 9.20483 -437586 -256685 -242260 -202872 -127585 64365.9 
216 1 46.5992 47.2449 10.6043 8.90318 -57719.3 -156840 373623 -110375 17448.9 -101804 
52 1 38.47 48.1902 2.82339 8.66296 140928 219863 273588 163567 96927.2 -15391.2 
58 1 40.0299 47.368 0.207005 9.01666 3251.07 -57774 -19139.1 -7748.26 171691 2263.8 
56 1 41.8121 48.1525 2.77341 9.47622 453141 186140 -56029.8 226856 209475 120902 
212 1 43.3899 47.3115 10.6285 9.19534 257564 127131 -103542 -106931 -126384 -65335.6 
62 1 43.2997 47.2278 0.232419 9.53572 198971 109562 199335 -329583 186743 11536.6 
60 1 45.0051 48.1879 2.84092 9.01652 -127131 -191999 125318 -5458.39 -32178.6 97085.2 
222 1 48.0269 46.3378 13.3558 9.04962 -86262.2 -87299.4 141874 -85496.4 -178471 -7622.5 
69 1 49.7446 47.1446 0.185029 8.72609 -35167.9 -123594 246416 -17796.5 -77896.8 90258.7 
65 1 46.4797 47.2616 0.232654 9.52563 283666 -358215 240340 200729 -92544.8 -169882 
76 1 48.1474 48.0707 2.80439 9.10295 -523201 8771.75 37784.3 31975.8 -154114 67874.2 
152 1 48.1042 49.9199 5.39138 0.244965 -134509 -284782 90240.1 -90492.7 192025 226091 
77 1 43.4532 32.7449 8.26209 38.0967 -393487 90355.6 -53465.8 -249068 -348514 -24256.4 
91 1 44.8063 33.5055 5.43367 16.3104 171141 -152630 415601 317937 -51064.6 -72604.1 
2 1 46.4055 30.9554 5.46822 34.0864 -217130 -682101 86912.5 -107687 -71951.8 245969 
78 1 48.0943 30.0818 7.8867 44.1457 -544945 90011.8 -176551 -202672 252594 -52066.1 
79 1 46.4624 32.8059 8.15981 10.0662 -625491 -214800 34090.4 -460469 58506.8 136261 
4 1 49.6504 30.8189 5.40769 27.777 34746.7 -489461 -177619 -131136 167044 164479 
81 1 49.5937 32.6804 8.0647 8.45471 -160070 -308901 111548 -309391 -11773.8 128166 
82 1 37.1615 36.4135 5.53481 48.6018 -753186 -39719.6 -78900.5 -94511 85401.7 -85248.8 
84 1 40.0871 36.2527 5.57659 17.017 -234203 121421 587181 160430 53859.2 -60416.6 
86 1 38.6444 35.4133 8.18457 38.4864 -238823 -56343.5 66857.9 -81477.3 416725 -12418.3 
90 1 41.7891 35.4711 8.23324 12.6874 -71407.7 389750 -212782 -202177 -88868.5 -440570 
88 1 43.3442 36.315 5.52571 9.32805 325024 -33017.7 211272 -18750.8 -79484.7 -61476.3 
94 1 44.8771 35.4309 8.05155 8.62936 -776285 -307732 -115680 40432.2 -100088 -66019.2 
95 1 48.0288 33.4491 5.45286 0.355355 175880 -263164 94131.4 -151704 -160732 -165876 
92 1 46.5415 36.2284 5.53273 0.275617 -53808.2 288716 59225.4 79969.4 126287 98246.3 
96 1 49.63 36.1938 5.50358 0.11127 -193689 16032.3 99633 126941 -240172 102259 
98 1 48.0119 35.3189 8.13104 9.08273 -483334 -246158 -187655 -63804.4 -9436.38 118672 
83 1 37.09 38.1251 8.18461 15.3122 -46697.7 116906 809659 -310144 -37056.4 -198968 
101 1 35.4873 39.0631 5.3994 45.0797 445517 244838 -191456 -187312 212994 -62348.6 
104 1 35.4706 40.8038 8.04375 15.0397 77877.5 678266 850573 -190697 -71519.9 110856 
85 1 40.1797 38.1345 8.10416 9.08062 -55809.3 -120321 -27896.7 281563 -373415 -70990.7 
105 1 38.6928 39.0512 5.54101 0.572877 304783 -117769 33040.5 -239562 44510.6 -24350.9 
108 1 38.6127 40.785 8.09368 9.15788 -92063.5 193015 267795 68406.8 -47779.9 -168816 
112 1 41.7048 40.8755 8.03719 9.25746 -104709 -9957.49 2915.25 781.647 34274.9 145361 
109 1 41.8045 39.0551 5.42261 0.32433 -15362 301748 102163 92207.4 21470.3 -240246 
89 1 43.385 38.1661 8.05254 8.98261 -442310 -313329 -314314 67528.2 144135 -207549 
113 1 44.9509 38.9774 5.43304 0.207522 -319260 -69013.3 102249 -175563 126568 -5871.13 
116 1 44.884 40.8578 8.08582 9.45012 -294282 -651818 -197974 -162345 181170 72233.7 
93 1 46.4419 38.1312 8.11135 9.10632 -396819 -253111 239406 -259611 -167230 -103853 
117 1 48.1148 38.9044 5.42577 0.285045 -426499 -49268.8 84930.7 63369.4 -186038 -182673 
120 1 48.0901 40.7267 8.02387 9.43904 -23048.8 -463124 -269522 24179.4 29211.9 215845 
97 1 49.6237 38.0709 8.10727 9.11953 -68386.9 -312631 -57185.9 177680 137908 30564.4 
118 1 49.7929 41.6966 5.43911 0.201003 277579 -229691 174608 99308 -40569.2 -208922 
114 1 46.4762 41.7345 5.56975 0.620281 258147 226194 63487.5 20400.7 -139715 -61033.5 
123 1 32.3813 44.6273 5.59385 43.7156 44612.6 282980 -372273 -47716.2 -23985.6 222626 
102 1 36.9876 41.8355 5.48952 0.267014 -155924 703268 434765 100270 79474.3 162850 
99 1 33.9512 41.9064 5.51829 42.4412 -488621 -68558.9 -306071 -162872 -22666.3 -414.725 
100 1 33.8839 43.6579 8.08943 15.5041 -217810 -76282 137535 -386759 -149795 -102742 
103 1 37.0293 43.715 8.17668 9.57261 454592 207398 576919 159408 -74640.6 42258.1 
127 1 35.4913 44.5692 5.50703 0.296881 125561 -318991 49828.1 -251281 -5832.35 -97709.6 
106 1 40.0936 41.807 5.44319 0.269606 575.358 -65606.2 120108 -137131 -77087.3 64556.9 
107 1 40.213 43.6791 8.06133 9.1747 -100313 -156523 85830.7 93281.6 -21886.8 -81127.4 
131 1 38.6586 44.6338 5.47301 0.506377 -125524 -176992 241846 177278 66612.2 42748.8 
135 1 41.7687 44.53 5.42419 0.0885705 -166664 -317000 -236944 -119934 116558 5930.8 
110 1 43.3619 41.744 5.45848 0.178184 121984 155450 2267.1 -15307.2 101932 -70503.5 
111 1 43.3979 43.612 7.95421 10.3398 -368709 -361273 245069 83965 -55728.5 -11834.3 
139 1 45.0336 44.5395 5.37867 0.491895 -7215.7 -137054 -445147 52283.2 74932.6 -31166.1 
115 1 46.4333 43.533 8.05195 8.4659 -358106 -514628 -340394 -296812 -88031.2 -271973 
119 1 49.709 43.418 8.0274 8.38189 -173252 -149997 -101966 60227.9 -23909 -250657 
143 1 48.1659 44.4843 5.34315 0.342055 43452.5 113142 63091.6 -125737 -29920.7 -235743 
121 1 30.7434 47.3898 5.622 46.9594 -43263.2 227989 67897 -89089.7 140749 113947 
126 1 32.3492 46.4405 8.24238 15.0921 -384799 241857 272841 -324459 -61778.6 -33712.3 
122 1 30.8202 49.1277 8.22472 28.536 -585790 201384 530319 -144875 -86782.6 -205430 
217 1 46.5591 48.9978 13.2564 8.98239 55417.9 -608621 -20360.8 -37101.2 -97922.9 -56639.7 
125 1 33.8327 49.1639 8.18522 9.57336 -101605 -541937 -120121 219559 -45921.4 -113582 
124 1 33.8491 47.4081 5.64156 0.401741 214355 482996 32536.6 -59937.3 -233611 18996.2 
128 1 36.9773 47.217 5.45237 0.395619 47270.8 -492967 -202336 13123.2 23338.4 -278324 
129 1 37.0655 49.0139 7.9157 9.86285 80256.8 304081 107873 183911 43931.4 185636 
130 1 35.3808 46.2808 8.07828 9.06531 -179743 -302341 46430.5 173393 -93462.8 31771.2 
132 1 40.2383 47.2758 5.37034 0.302082 -207933 -367705 311087 -14038.5 25428.6 -30662.7 
133 1 40.1629 49.1781 8.07276 9.447 5905.81 448985 176192 26946.4 -481197 54066.6 
134 1 38.5988 46.3415 8.05251 9.30401 41889.7 -647162 206297 199941 -64839.9 -154454 
138 1 41.7995 46.3208 8.02324 9.38717 -45322.3 130948 142148 -198402 68104.8 15897.1 
220 1 49.6987 47.2107 10.7761 9.09111 -128585 -373828 172472 -230847 -99615.4 171796 
136 1 43.3062 47.2298 5.4552 0.281052 -289627 -299678 -137921 60713.8 -4574.36 -107864 
137 1 43.375 49.1692 7.96627 9.05848 -97172.2 15308.6 -490563 -25036 10837.6 99095.7 
142 1 44.895 46.3037 8.0345 8.87173 -143106 102769 136254 -32748.4 -20967.4 -78672.3 
221 1 49.7835 48.9554 13.3341 9.37392 -142445 -618243 -5959.58 -464313 106905 -162763 
140 1 46.5199 47.2934 5.39867 0.204248 -100192 -385600 -234999 -256532 -155392 -198030 
141 1 46.5671 49.0617 7.91013 9.88355 -298524 234838 -107369 32877.5 100422 -32311.7 
144 1 49.6611 47.1944 5.41637 0.132148 -54056.2 95561.1 171706 -89163.5 19650.6 202184 
145 1 49.6128 48.9514 8.14147 9.16955 134743 646392 388247 -79266.6 -195293 -151149 
146 1 48.0746 46.1514 7.97122 8.04693 167429 1817.94 -209434 -90882.8 152430 204288 
153 1 43.3886 32.4516 13.2784 21.2211 29807.9 193262 512445 -71273.7 49157 53662.7 
156 1 49.6383 30.913 10.59 19.6427 -471232 -276377 181900 36380.1 102837 286256 
155 1 46.5535 32.4107 13.3838 13.3696 366119 581233 807905 -27111.3 -74454.1 -46889.7 
154 1 46.6418 30.8311 10.4775 33.6625 -306657 -268064 -86035.1 -6575.1 25731.2 235778 
157 1 49.7001 32.5286 13.3754 15.3525 -54920.6 357212 544353 87581.1 7619.28 -263577 
158 1 37.2302 36.2413 10.8383 31.8734 -228975 -217016 139271 -312919 13471.8 -115387 
163 1 41.7983 33.5379 10.8614 30.1107 288643 -245581 25630.9 -48808.9 -198671 -78356.6 
160 1 40.2791 36.3061 10.8017 11.8846 -171983 24941.8 79628.8 141379 267222 -184410 
162 1 38.7827 35.2846 13.3394 30.5828 -70422.9 -130413 -58294.1 -500942 -17959.4 82866.9 
166 1 41.9027 35.251 13.3855 11.6958 -290896 249859 -86905.7 -88023.7 -182191 -219334 
167 1 44.9808 33.4771 10.7771 12.6766 102675 -293124 -307654 -248462 127823 -363812 
164 1 43.3732 36.2254 10.6664 9.41115 -513245 403748 213725 -138068 -241113 -123380 
170 1 44.9741 35.2358 13.3459 9.2856 -117769 562899 -56674 19002.7 207759 52950.5 
171 1 48.0731 33.5436 10.6635 9.24438 -210931 -505834 -31772.7 100690 -51087.9 -74997.6 
168 1 46.4536 36.1652 10.6791 9.29702 72275.9 126087 7177.56 207190 125621 -97572.6 
172 1 49.7346 36.1905 10.6744 8.93092 114318 -209201 -149428 38400 83125.9 -120502 
174 1 48.1181 35.2644 13.3106 9.46638 41003.8 457907 107802 -33389.7 -51746 90.5327 
177 1 35.4692 39.0221 10.8226 33.458 -168970 117412 -36222.9 -177161 -154192 8198.8 
159 1 36.9073 38.0213 13.3635 15.0339 307505 288969 -128679 -212806 33194.6 105031 
180 1 35.4435 40.8073 13.4158 15.7991 32535.7 207456 59571.6 -135252 174646 -119245 
175 1 33.8905 41.8179 10.7434 24.3273 -226752 -385984 422925 -237735 -4681.82 12413.1 
161 1 40.1894 37.9629 13.36 9.17966 775438 161359 97949.1 -917.391 -107844 -177730 
184 1 38.6127 40.7371 13.3286 9.12936 346821 345735 -21526.4 60213.5 -52428.7 143162 
181 1 38.5648 38.9374 10.7667 9.36489 106514 -321612 121256 -92552 -242071 -126264 
188 1 41.8 40.7868 13.2516 9.89559 -81047.5 92767.1 591464 216253 -26115.6 138349 
182 1 40.1185 41.6732 10.6968 9.23818 41623.5 133945 19289.5 223685 -25041.1 -67329 
185 1 41.8042 39.0406 10.5588 10.1443 -178498 248698 85180.9 116919 -92612.7 -110249 
192 1 44.9223 40.8387 13.2821 9.22026 -342822 -123129 142453 -218948 -39545.5 -61730.8 
165 1 43.394 38.0649 13.3688 9.97259 -28922.4 303521 138905 100604 244932 -94151.8 
189 1 44.841 38.9715 10.6997 9.29608 -188085 238773 -59025.1 29680.9 -35304.7 35627.5 
186 1 43.3955 41.8494 10.6254 8.58888 489431 194888 295954 45589.9 113752 -81793.8 
169 1 46.484 38.0098 13.2144 9.53367 -267310 92280.3 -87486.9 -138040 -54233.6 -187788 
196 1 48.0393 40.7243 13.3103 8.90293 -168421 -297077 -406179 25179.8 -4227.52 -50561.9 
173 1 49.6546 38.0096 13.2115 8.94254 218597 68881.4 -129080 47459.2 108661 -87060.3 
193 1 48.0855 39.0132 10.622 9.03179 294335 16600.7 -278381 173032 19095.8 798.161 
194 1 49.7882 41.6457 10.6579 9.11431 -42546.1 -100664 -4673.19 -107004 -75788.9 17826 
190 1 46.6196 41.7293 10.6032 8.35238 334813 -64618.2 201932 230473 -47764.2 -58756.6 
199 1 32.3307 44.5154 10.7069 24.1211 -656109 -152128 -77584.2 194914 10126.9 15573 
178 1 37.0101 41.7019 10.8098 10.2156 271245 413777 529949 108555 -27436.5 54609.4 
176 1 33.8822 43.624 13.3641 15.3291 -475199 -372352 -57858.7 -466725 87403.2 55659.8 
203 1 35.3058 44.4541 10.8021 8.80538 6661.04 143852 -80029.1 -167140 97493.1 -110506 
179 1 36.9975 43.563 13.3747 9.90997 133350 201683 -12450.5 10008.6 16778 -98551.9 
183 1 40.1708 43.4385 13.3152 8.46465 -427332 -62227.8 -94999.1 127482 -183597 -48529.9 
207 1 38.6999 44.4865 10.7407 8.7476 27763 -46790.9 -29537.3 -86123.7 -43700.2 -193116 
211 1 41.7585 44.5191 10.6627 9.17759 -45307.9 9828.05 115615 249204 -227222 -81861.5 
187 1 43.2562 43.6221 13.303 8.95956 -30040.5 57741.6 -22357.7 147570 -25880.7 -176666 
215 1 45.0359 44.5344 10.6509 8.45114 -113266 -61925.2 24616.4 -67525.1 -8208.85 67305.8 
191 1 46.4858 43.5243 13.2351 8.9331 366182 293262 298495 -116963 -155657 -2145.07 
195 1 49.7013 43.422 13.2613 9.02533 -19438.7 -138.608 7901.61 -208787 31265.1 -62748 
219 1 48.1337 44.486 10.5227 9.22042 -506539 56534.5 114694 -89168.7 -26784.2 189594 
224 1 35.4959 49.947 10.7256 9.49978 26324.8 -317712 336569 -137639 -140521 234549 
202 1 32.2183 46.2621 13.3038 15.1793 -247511 97702.3 302922 37688.4 -208470 30300.9 
198 1 30.7317 48.9886 13.2526 30.9028 -386638 254217 -154752 -77274 178323 -115631 
197 1 30.6977 47.1829 10.8302 36.3792 -70155 -119314 -230843 180355 -160454 -299672 
61 1 44.9204 49.9224 0.184836 8.71394 -296.808 -257739 -12898.1 60995.5 -65573.2 -44843.9 
201 1 33.8234 49.0793 13.3346 9.63817 105752 570966 -70540.1 98058.2 -186064 -65147.5 
200 1 33.8387 47.3482 10.7163 8.69758 284949 -43484.1 -289467 87190.4 -286304 -145014 
205 1 36.9621 49.0253 13.3697 8.98071 -82867.4 182771 22240.3 32695.5 6833.98 -132833 
204 1 37.0287 47.3057 10.6635 9.29999 221600 217397 541973 234671 78197.7 -69990.7 
206 1 35.3141 46.2672 13.3281 9.37862 424754 -210298 119405 -108829 28075.2 -58682.1 
151 1 44.9081 49.9964 5.48897 0.302255 -979699 -228967 -335571 -29516.7 87950.8 286024 
208 1 40.1562 47.2233 10.7132 10.2171 12189 -107615 -129983 -31055.4 -45072.4 -170194 
210 1 38.5951 46.2562 13.3009 9.52637 329237 221184 195888 -205578 -2794.06 -150972 
209 1 40.1581 49.0615 13.1692 9.87902 11550.3 -60314.5 -141254 63018.4 -25862.6 -94814.1 
214 1 41.7423 46.2847 13.2209 9.63629 -319245 -138757 16911.4 310781 -113887 48707.6 
228 1 48.0871 49.9833 10.7164 9.2678 -136737 -248423 33352.6 14818.6 278438 27482.6 
218 1 44.8582 46.439 13.1937 8.59293 -199730 -28731.8 271590 -20730.2 -123658 1962.49 
227 1 44.9591 49.9503 10.6036 9.63422 82472.3 -108594 268229 -335883 -82121.8 227194 
1503 1 48.1459 49.9169 0.190639 9.70309 58937.6 177364 298371 -210220 144157 3114.44 
223 1 32.2804 49.9574 10.8334 11.4229 -13645.4 229654 -416798 479518 44646.6 174324 
230 1 43.5366 30.7054 15.8653 103.894 5610.11 72020 -323354 94363 -27670.1 -14613.9 
243 1 45.0516 33.486 15.902 8.90854 270375 -11442.3 -284674 71649.3 298495 260050 
229 1 43.4856 32.6156 18.3594 19.6413 -275441 -148683 -56489.4 -221082 56924.9 303131 
232 1 46.6296 30.7059 15.9628 49.2368 387609 -81858.2 -489122 -46868.1 -4252.37 -24271 
3049 1 49.7597 30.7246 16.0639 66.2816 136878 -39592.1 -137310 43181.3 29178.2 -157930 
231 1 46.6309 32.5165 18.4479 16.2865 56821.2 388198 463629 10167 56637.3 -114208 
233 1 49.7364 32.6177 18.5124 14.7591 -11346.5 -8918.23 114698 159772 88994.4 -39069.6 
234 1 37.1917 36.2327 15.8442 31.3383 -249414 -176396 137334 -19203.3 117254 -5145.38 
236 1 40.2538 36.198 15.9494 12.6407 107695 255286 83349.3 -6462.12 -162861 44738.8 
242 1 41.8154 35.2461 18.4836 12.1891 38307.6 66202.3 59867.5 -94334.6 12927.2 -8870.73 
239 1 41.9343 33.4412 15.9036 22.8663 39909.4 -87620.1 -66831.4 -338249 -241390 206179 
238 1 38.6541 35.2871 18.5569 32.4574 -100900 -125546 133552 -257082 140679 -189981 
240 1 43.4057 36.1193 15.9506 9.59873 12301.3 96890.7 -204865 46028.1 49036.2 -114563 
246 1 45.0539 35.2319 18.5178 9.99968 282488 115163 106829 -61575.4 88160 -85879.9 
247 1 48.2198 33.4646 15.8958 9.47914 185251 197680 -351922 120532 80078.7 52001.9 
244 1 46.6232 36.175 15.9717 9.71407 -41304.3 -160364 156286 -173731 55111.5 -76329.4 
250 1 48.2476 35.3297 18.5121 8.91326 -174057 62693.7 -60477.9 296515 -81340.2 86845 
248 1 49.7658 36.221 15.8416 9.78972 120833 235089 71565.3 -46655.6 41134 -37215.1 
253 1 35.5153 38.9562 15.9315 24.3902 -281852 -9299.38 -375533 -24892.1 43438.5 97107.8 
256 1 35.4745 40.7887 18.5318 15.9336 -88236.8 -65731.2 168186 -198065 190273 128749 
235 1 37.0571 38.0013 18.4442 15.5109 -238725 181806 197463 -335149 85341.9 133526 
251 1 33.9697 41.7849 15.9421 22.7198 -311154 -101143 -450511 -200068 87269.6 -227129 
257 1 38.5969 38.995 15.9508 8.9821 348116 143626 -41606.5 -68948.2 170927 -25548.5 
260 1 38.6078 40.6747 18.5495 9.29434 305689 227132 257810 113150 -16232.4 -58049.4 
237 1 40.162 37.9595 18.5761 9.54389 210706 -57370.2 42867 228896 29059 -125343 
258 1 40.1799 41.7223 15.9698 9.44563 65091.3 -44780.2 298985 114990 -197999 288922 
261 1 41.8608 38.9872 15.9048 9.34027 244620 182834 -123488 92635.4 7342.18 -264019 
264 1 41.7904 40.7478 18.4715 9.70683 125198 425670 -164839 -46713.1 -161837 -109079 
265 1 45.0429 38.952 15.8495 9.23201 -306917 79787.3 149394 -96024.5 -57293.6 -143759 
268 1 44.9909 40.7157 18.5137 9.64251 -140157 152855 183147 -25511.4 -94494.3 27379.5 
241 1 43.4103 37.9814 18.4995 9.54022 488720 216974 165185 16871.8 -109804 97035.6 
262 1 43.3985 41.7001 15.9239 9.63113 132774 -116212 121567 -297198 179656 -34407.1 
269 1 48.1044 38.8734 15.7534 9.5321 -345842 -362661 -16289.1 6472.53 164591 112921 
245 1 46.6436 37.9929 18.5515 9.57186 130859 -247379 125580 30429.3 -82685.3 -115384 
272 1 48.1088 40.7793 18.4059 9.35273 413.623 33071.8 393110 -2678.04 26305.5 121845 
249 1 49.825 38.0779 18.4647 8.61404 116740 -166638 555580 -171383 61918.4 -168433 
270 1 49.6837 41.6475 15.8104 9.80589 15338.8 -270224 50164.3 86206.5 -1064.96 116333 
266 1 46.5795 41.6398 15.8205 8.91556 -332175 -249015 -324344 -168835 -25069.8 -61077.4 
275 1 32.2355 44.5197 15.9324 25.2626 -154506 -554509 -612959 -95693.5 -111911 -200548 
254 1 37.0193 41.7046 15.9534 9.56544 -226215 -5395.6 5125.14 35371.3 1591.89 -12225.9 
279 1 35.3777 44.4808 15.8731 9.56335 131732 -469132 -298535 -173821 9654.62 -82701.1 
255 1 36.9677 43.4822 18.5867 9.64598 90270 359722 176908 -57876.9 -7228.84 -285327 
252 1 33.8425 43.5326 18.4242 15.8262 -232880 -341264 172487 -116773 -73063.4 -159252 
283 1 38.6006 44.393 15.951 9.63049 109322 -53873.8 296599 75865.5 -114612 -97471.5 
287 1 41.727 44.5115 15.8303 9.55469 -327237 -67731.3 -142333 68445.6 8142.37 -262963 
259 1 40.0969 43.6227 18.6647 9.6627 80567.3 194717 -17433.6 53200.5 -46855.2 -124536 
291 1 44.8768 44.4892 15.8414 10.1538 5308.35 21924.5 299701 -320793 49301.4 -106897 
263 1 43.3922 43.5488 18.4824 9.16706 447606 282556 -75467.5 -113847 -3002.83 7729 
295 1 48.1 44.3471 15.8809 9.60615 56710.6 -260268 -24769.1 -119686 28052.1 72388 
271 1 49.7591 43.4849 18.449 9.38978 155723 75644.1 171433 -73039.6 30531.7 41054 
267 1 46.5458 43.5079 18.4635 9.93852 71829.8 105279 221161 1506.33 64441.4 44571.3 
273 1 30.7429 47.2346 15.9115 32.6192 -298239 -145363 304806 189199 -19526.7 -79453.4 
278 1 32.2518 46.1577 18.4494 14.4001 -60229.4 258622 109398 -105036 115486 -177444 
274 1 30.8297 49.0275 18.4929 28.7771 -306225 672905 34544.8 -111047 -161615 25172.4 
304 1 48.0514 49.9222 15.8205 9.50301 139772 411771 -49212.2 149709 -99169.7 43425.8 
276 1 33.8017 47.1475 15.9649 10.1055 -55482.9 334620 176207 -11091.4 153155 72735.1 
280 1 36.957 47.1678 16.0255 10.1657 140266 -92541 132057 -12903.4 -88758.1 57010.9 
281 1 37.0173 49.0787 18.4924 9.09952 -282702 -130987 -221066 219611 -137263 108610 
277 1 33.8493 49.0767 18.5343 9.74897 -42219 430401 221941 -156183 224980 -3164.99 
282 1 35.3476 46.2393 18.5634 9.4696 128465 207938 -926993 -25711.6 49692.9 48548.4 
419 1 44.8835 49.9492 26.3477 9.29495 -57797.7 148413 320633 -130456 75147.2 141502 
284 1 40.1682 47.2075 15.8863 9.7902 -418745 -620196 -232078 227714 -261307 107050 
286 1 38.6527 46.3214 18.4723 9.40061 -450918 -418445 -298700 262358 12313.8 -22344.4 
285 1 40.1309 49.0324 18.5391 9.14192 -485068 -35078.9 -216875 53673.7 12907.9 143287 
290 1 41.6924 46.3195 18.3845 9.82265 -116850 3139.41 18685.3 -116331 60240.5 -38303.9 
379 1 45.0075 49.9439 21.0639 9.27324 -100029 -293656 -4717.76 -126416 115005 -104163 
288 1 43.3243 47.2463 15.9047 9.75802 -284761 -92501.2 232104 35827 124671 33234 
294 1 44.9531 46.323 18.5008 9.19715 -17166.1 -103725 -285123 -331982 203173 111717 
289 1 43.2731 49.0681 18.5191 9.11209 49617 -46297.6 76833.4 -63433 -28162.8 44831.3 
303 1 44.9493 49.9574 15.9271 9.79351 -210635 -307661 -74594.4 98241.8 -85867.2 63346.5 
369 1 46.5256 48.9293 23.7754 9.5201 333502 -475177 221410 206772 52197.8 -11014 
292 1 46.4222 47.1544 15.9633 8.49832 -225657 -89982.9 -225715 -61299.2 184097 -58898.2 
296 1 49.6498 47.0706 15.8394 8.6697 123279 213392 -585193 -17275.3 -369764 98359.2 
298 1 48.121 46.2441 18.4569 9.69463 -93858.7 78724.4 100739 -42588.9 -64188.5 14321.6 
293 1 46.4696 48.9835 18.4956 9.33025 -101393 -425926 -85463.1 -8461.37 53994.3 -160206 
297 1 49.6656 49.027 18.4073 10.2324 169851 -72052.7 355326 -23715.1 156303 162230 
319 1 45.0653 33.3439 21.1405 12.6998 9881.81 242041 431083 100221 3256.32 -120583 
306 1 46.7119 30.7352 21.1707 48.652 353121 -283212 -79274.2 -36585.5 6106.78 -137248 
308 1 49.934 30.8 20.9657 34.2491 405024 -217229 -23795.7 -62301 -110234 113116 
310 1 37.0529 36.1822 20.9923 35.5652 -200433 -331979 -139738 -31893.4 110918 -105987 
312 1 40.2084 36.112 21.0961 12.3956 358273 -109604 -376750 41850.1 -91237.2 98634.4 
315 1 42.0456 33.3978 21.0783 31.923 -131071 78941.6 427814 -176360 59417 -107994 
314 1 38.5708 35.331 23.6071 32.9715 14266.8 -315339 424314 -131228 45479.4 40542.7 
316 1 43.4149 36.2078 21.053 9.74524 469302 305384 -16565.2 34611.7 8209.34 -6830.14 
324 1 49.7484 36.1175 21.1593 9.08829 -741146 -330850 145407 -73597.6 -3813.87 -35009.2 
323 1 48.1873 33.4487 21.0466 9.42364 -66000.3 -232697 -84992.9 -93356.3 37759.7 -216295 
320 1 46.6775 36.1819 21.1243 9.4548 -74839.8 98096 -191435 19743.2 33547.4 -80846.4 
329 1 35.4721 38.9425 21.0016 24.2795 90331.4 -143381 -27874.6 -48261.9 -41193 192459 
330 1 37.0217 41.6302 21.2556 9.99205 65779 377195 -13568.9 -19398.1 -122482 51710.5 
333 1 38.6423 38.8113 21.1381 9.19681 63697.9 246909 -211833 6282.57 291105 182454 
334 1 40.1717 41.6223 21.2131 9.42349 -162802 222113 117836 37749.4 168918 47679.5 
337 1 41.76 38.8834 21.14 9.661 -114823 234189 -82014.3 257356 -67542.5 -14379.9 
341 1 44.9677 38.9531 21.1226 9.46735 71871 -67475.2 -358778 -293215 90900 98150.8 
338 1 43.3032 41.7705 21.0156 8.86229 56087.9 -167809 215033 170777 -60016.1 -77536.2 
345 1 48.187 38.9077 21.0946 9.48418 314157 31062.4 33809.5 -263970 -33439.1 -94040 
346 1 49.8074 41.598 21.0466 9.48722 36594.4 174381 354101 -67852.3 116013 11283.3 
342 1 46.5507 41.6897 21.1082 9.89384 256892 -43251 209532 -242033 -68915.4 -35105.2 
351 1 32.3041 44.4675 21.1636 23.0422 -415612 -170097 -156676 -126866 -162563 -72158.3 
327 1 33.9352 41.7243 21.0395 22.7726 -224659 -78479.6 106521 -37962.7 115094 -138334 
355 1 35.3518 44.4396 21.0524 9.56183 -239865 -374302 -371773 198180 41409.1 113473 
359 1 38.5187 44.4305 21.0969 9.23283 122047 84733.7 -712547 35193.6 367250 -354875 
363 1 41.7896 44.4044 21.1329 9.25145 -55760.9 13567.4 136616 300975 -205027 -158040 
367 1 44.9131 44.4685 21.0748 9.70271 17402.1 -135300 296141 -170296 -82165.4 -6407.66 
339 1 43.3237 43.4508 23.7483 9.39035 -19012.7 324022 98656.8 137944 -93871 4711.11 
371 1 48.1774 44.3406 21.0598 9.16288 166894 100757 158631 -153497 -86163.6 167093 
412 1 46.5462 47.1655 26.3654 8.75873 -222381 -70641.5 -192625 65011.8 1831.89 266895 
349 1 30.6732 47.1887 21.0081 36.3749 264001 34670.9 231746 -53125.5 -61248.4 194563 
414 1 49.7275 47.2429 26.3953 9.88937 -288590 65438.9 369147 -56435.1 16573.4 100256 
352 1 33.9161 47.124 21.0529 9.02743 328991 -116479 -397233 218508 393389 166729 
356 1 37.0112 47.199 20.9429 10.1253 -253349 -91836.8 -159102 -67978.9 -232214 52268.3 
353 1 33.742 49.1105 23.7162 8.51676 -72320.1 -21606.3 -35871.9 111207 27782.5 -18444.3 
378 1 41.7749 49.9494 21.1824 9.58734 -111154 -255565 -347253 32216.1 -138086 74454.3 
366 1 41.7152 46.2789 23.7671 9.6735 -80515.4 -7220.52 -155328 -83498.6 9325.39 -8975.64 
360 1 40.2091 47.2155 21.1137 9.04152 -21742 -188328 -140884 51011.4 57156.4 94668 
361 1 40.1242 49.0159 23.6758 9.02319 -124633 -198939 -114011 -1814.18 65262.2 687.51 
410 1 43.3747 47.204 26.3067 9.08647 -423539 100294 -127861 85990.2 -31022.8 -143840 
364 1 43.3936 47.2381 21.1294 9.02011 -37952.6 92149.7 237459 208232 42440.3 -45945.4 
368 1 46.5258 47.1219 21.1287 8.83928 -294825 193005 -1821.27 -69754.8 -236778 47894.7 
372 1 49.7205 47.1303 21.0447 9.0312 9497.44 286095 280381 -31053.3 -12036.3 -122229 
374 1 48.078 46.3843 23.6771 8.7612 126577 -284167 206982 225369 -61230.9 193611 
373 1 49.8021 48.9844 23.6002 9.44054 63840.9 -122289 122563 -191769 -118504 83007.4 
305 1 43.4585 32.3712 23.7974 20.8462 -89954.5 491303 355356 -151961 123237 -375040 
381 1 43.6054 30.6346 26.4325 100.931 -345153 -237978 -397449 -191.696 47733.5 -64258.3 
309 1 49.7225 32.3942 23.6663 14.4005 635415 339355 517174 246632 -126695 157355 
307 1 46.5748 32.3962 23.7776 14.4856 274922 418965 443915 22005 -121023 -324739 
382 1 46.6217 30.5689 26.3668 40.9741 137497 64636.7 164271 -118799 12271.9 14869.1 
3195 1 49.7352 30.6863 26.2151 49.5617 -78212 -417213 -325922 -81594.3 36828.8 143647 
383 1 37.0156 36.2969 26.2661 33.8215 -2642.99 -207022 299516 -301515 85674.4 -88535.6 
384 1 40.1759 36.1151 26.2575 12.3463 324999 314637 140168 -1867.66 92458.8 120992 