ITEM: TIMESTEP
20000
ITEM: NUMBER OF ATOMS
5538
ITEM: BOX BOUNDS pp pp pp
0.0372549 99.9627
0.137726 99.8623
-0.76133 100.761
ITEM: ATOMS id type x y z c_csym c_2[1] c_2[2] c_2[3] c_2[4] c_2[5] c_2[6] 
11 1 40.4586 30.7523 -0.106356 94.8724 -507698 -332560 -136941 189305 91354.7 27666.5 
87 1 41.8051 31.7766 2.47897 46.2837 374918 -488336 -430492 -47780.8 303222 -23919.9 
10 1 38.8897 33.2426 0.109555 34.1816 170759 337069 390139 -207428 176389 -231733 
14 1 41.9469 33.55 0.0262414 8.60689 -27329.7 -119484 -52917.3 -17987.5 31896.6 172551 
1 1 43.527 30.9629 0.0840195 29.2207 -213801 -36988.1 30626.4 150041 146767 -33239 
15 1 45.0445 31.6585 2.73808 17.0217 510361 -366311 454215 -68219.2 10928.4 95553.8 
18 1 45.0925 33.6626 0.143054 7.73385 -449335 235016 380600 33844.4 10960.1 -68370.4 
3 1 46.6121 30.8852 0.0268098 34.6792 -77526 -117411 276517 -252455 7876.69 102636 
19 1 48.2533 31.6766 2.68824 14.4369 732979 -59658.5 538847 -63728.4 36746.1 120226 
147 1 32.2484 49.9859 5.38496 16.7446 -488107 386203 231975 -105678 -194083 -151564 
1375 1 37.184 36.0645 0.163607 22.3722 118932 789955 691063 -572617 262743 269021 
6 1 38.7309 37.0857 2.84804 15.4313 -252528 -358438 171267 231037 -242199 377572 
8 1 40.2525 34.4551 2.62605 19.8126 77696.4 -236698 157383 39584.5 -59491.5 296530 
9 1 40.2456 36.2074 0.0628363 9.38319 132944 293722 7039.96 240286 224038 87658.8 
33 1 41.7925 37.149 2.74387 9.72079 -105963 1178.71 423410 -68658.4 63259.2 42135.1 
12 1 43.465 34.3482 2.76019 8.45894 49549.7 70842.7 71556.3 -172181 94170.7 113497 
13 1 43.47 36.2379 0.137565 9.28392 63249.6 -282459 332702 112598 -211677 -208267 
37 1 44.9596 37.1049 2.75625 9.23338 391638 388008 266117 -85189.2 -270345 -194595 
22 1 48.1802 33.5113 0.12506 9.71953 34260.4 -40274.8 266059 97811.5 -162375 -4397.04 
16 1 46.5283 34.3335 2.79067 8.46237 -93068.7 320946 332334 -69389.6 -311020 -302493 
17 1 46.6985 36.263 0.063297 8.70716 -430205 -219347 425075 -244802 -22371.7 -60483.5 
41 1 48.2302 37.0332 2.80881 8.79267 297657 422058 430451 125246 67268.7 23638.9 
21 1 49.7433 36.2882 0.118502 9.4975 -463401 -302534 103212 396485 -74936 -226030 
20 1 49.7541 34.3969 2.72587 9.22582 -85833.4 324280 129851 67205.3 72338.5 71699.1 
25 1 37.0199 39.7252 2.77512 14.4225 482358 456285 426577 11286.1 160971 74483.2 
1396 1 35.4963 38.8654 0.0799772 23.121 79336.5 548739 -44389.8 -390640 307446 213506 
28 1 37.138 41.5602 0.293982 8.98823 21890.1 204105 156363 46443.5 141779 -52894.6 
1392 1 34.0055 41.6565 0.0347367 21.0298 4310.37 232882 -309453 -336045 97274 285791 
7 1 38.6345 38.8368 0.213098 9.33116 214626 -69742.6 113834 260552 -24951.3 -84216.9 
29 1 40.2163 39.8033 2.71407 9.37091 96569.3 319739 437925 7765 -265696 2070.17 
36 1 41.8439 38.9661 -0.0456065 9.56592 415479 320945 219097 120510 94547.1 -252374 
34 1 43.2938 39.9081 2.68823 9.07204 -229351 -507760 519166 -149567 79139.5 -11930 
40 1 45.0251 38.986 0.128839 9.5042 196824 171313 290685 -298845 -238681 -11269.2 
35 1 43.4201 41.7932 0.161795 8.36623 -181886 -367497 -303587 -222596 182767 140070 
42 1 49.7888 39.8576 2.77156 9.27462 292484 267004 417355 118673 -6998.96 -174114 
38 1 46.5265 39.8879 2.67465 8.7667 384370 90984.7 -184503 -150392 -52050.7 149301 
44 1 48.29 38.9765 0.0148345 9.69366 -55440.6 -296446 238335 96652 98305.2 -39359.1 
39 1 46.6043 41.6518 0.178499 9.01121 -23344.7 -300291 44410 3078.05 -84634.6 157444 
1418 1 32.3944 44.4051 0.196467 21.9304 -232556 40293.9 -314650 -76339.7 -56336 260271 
47 1 33.7561 45.3696 2.85474 12.3334 317262 164089 563389 17797.8 -188320 -68166.7 
23 1 35.4003 42.5304 2.76383 15.949 203088 758065 656286 -35435.8 -94656.2 -10175 
24 1 35.5033 44.3606 0.184361 8.98104 -32022.7 485111 290844 -278429 -105587 266522 
51 1 36.9249 45.4461 2.79787 8.60612 597568 56569.4 157780 239958 51140.6 -125794 
32 1 40.208 41.6964 0.125415 9.76525 101847 394804 516001 12335.2 -90112.4 102423 
26 1 38.4854 42.6715 2.86773 8.58229 488358 647651 -26310.3 -46293.2 -168665 -67848.5 
27 1 38.5792 44.4615 0.230938 10.088 -61613.2 324971 353166 159905 -32633.7 261066 
55 1 40.1724 45.3954 2.91365 10.5527 112694 -8734.87 273679 85928.3 -99279.5 -106681 
31 1 41.7588 44.4617 0.189304 9.44233 292146 70830.2 245483 149831 -177061 80856.6 
30 1 41.8245 42.6047 2.75608 9.28008 -285844 -166643 204855 155876 38161.1 72123.3 
59 1 43.2913 45.4006 2.81581 9.80544 -84579.9 248653 551489 -127573 -123536 12864.1 
63 1 44.8408 42.5034 2.77525 8.65372 -575178 -239317 -101629 -148511 -183374 -217282 
66 1 45.0143 44.3538 0.155594 8.58485 163951 34198 219909 -363752 -106223 -272428 
43 1 49.7514 41.8156 0.122983 9.75818 -325367 -99731.9 229409 7701.24 -147369 37902.4 
67 1 48.0228 42.7011 2.78524 8.6233 129554 170768 278060 63406.3 -72470.7 -4964.67 
64 1 46.4479 45.3429 2.71225 8.75159 145772 -95205.8 159574 191296 8945.64 179892 
70 1 48.1656 44.4977 0.0859193 9.47534 -86849.5 -15654.1 229846 295669 58588.5 -50888.2 
68 1 49.6867 45.4379 2.75719 9.20641 111204 -600506 93476.1 137431 74172.6 33966.3 
45 1 32.3736 48.04 2.71933 18.6858 -570853 -584855 400748 164815 -31971.4 -135893 
1414 1 30.97 47.1155 0.157187 50.6407 -528838 3283.36 -354271 20873.6 -31192 -34313.7 
4 1 49.7712 30.875 5.45845 26.2643 -248928 -840355 41622.3 -144636 -156275 -70225.3 
50 1 33.9125 47.1635 0.08159 9.36745 -281587 384887 46445.4 -355902 148399 -151576 
48 1 35.3649 48.0975 2.73849 9.81749 73141.1 -51645.2 179843 197257 -101930 -46217.8 
54 1 37.07 47.2344 0.188904 9.09685 84848.3 -118185 -38485.4 -69057.3 56103.9 -142372 
221 1 49.6398 48.9466 13.2657 9.63384 148762 189867 -140149 -7815.69 -210671 5193.02 
52 1 38.6171 48.1201 2.77506 9.5682 -176724 -78993.6 -57447.1 -37044 -171249 -14824.7 
58 1 40.2435 47.2344 0.189307 9.76848 8037.35 51847.3 236778 81357 -202824 -283023 
56 1 41.756 48.1572 2.74723 9.89844 -175430 73692.9 -45007.5 -11215.1 -37437.5 86132.9 
222 1 47.9707 46.2783 13.2503 8.99119 226829 203479 344299 -245839 3258.8 15016 
223 1 32.3504 49.8815 10.5776 11.3794 -232194 -400173 552916 436588 -313237 45114 
220 1 49.6014 47.1533 10.5786 9.47814 152608 -95124.6 30455.3 25100.8 -240372 30298.8 
62 1 43.4442 47.2425 0.142432 8.92773 519809 621323 357657 46951.4 -11006.5 -85897.5 
60 1 44.9316 48.1305 2.8371 9.66691 46050 -43993.1 452945 -23519.3 46451.1 -33355.4 
69 1 49.8163 47.2641 0.193853 8.56792 -573759 -370528 -277243 74817.2 -10386.9 97868.3 
65 1 46.6778 47.2193 0.252047 8.55594 102891 -86430.5 -135670 -134733 12179.3 93887.4 
76 1 48.1063 48.0414 2.79246 8.58549 -76722.8 -69979.2 912.437 120388 -276788 -117979 
77 1 43.5708 32.4961 8.06657 40.7966 34089.1 268180 -71139.2 -461428 -21394.6 106984 
2 1 46.6827 30.9739 5.34399 38.7188 -296421 -300098 -132613 -156950 -177649 -136856 
78 1 48.0202 30.0286 7.94672 45.3315 116687 -50427.1 -325954 233615 48553.3 -87855.3 
79 1 46.6381 32.6995 7.8992 10.9744 -282444 -631893 -167612 105456 -229081 -117624 
81 1 49.8517 32.6998 8.03447 7.9528 -84592.6 207975 51418.7 128311 48252.7 95485 
57 1 41.8066 49.9854 0.170561 9.41637 189553 -271220 536330 -140951 36008.7 180140 
95 1 48.2403 33.5148 5.31688 0.298869 -46016.5 -381448 193472 -16755.4 78702.2 151889 
82 1 37.1213 36.2641 5.44028 46.5186 -403228 -12535.7 -281515 19475.5 -190049 205131 
84 1 40.1954 36.2959 5.31816 17.815 -404708 -134625 103196 173224 -340364 227384 
86 1 38.5447 35.3608 7.91712 34.9845 245970 154094 90167.7 111402 -35600.9 -15754.6 
90 1 41.8283 35.2908 8.06516 12.4974 687103 572697 188491 -487570 38653.4 -181357 
91 1 44.8951 33.4926 5.46893 16.4221 168517 31215.9 -123892 81021 -219471 208395 
88 1 43.2972 36.1974 5.39096 9.06814 293459 315760 477642 45730.9 105283 -125010 
94 1 45.0259 35.2623 7.9969 9.49536 -12798.5 -9528.93 251984 99067.1 47917.9 -329641 
92 1 46.5835 36.1556 5.35154 0.230568 365812 175800 -216486 337402 -10709.2 -46010.3 
96 1 49.8249 36.277 5.38241 0.268537 -80885 -94429.9 286903 -233048 -97398.2 97935.8 
98 1 48.1754 35.3707 7.94676 8.92363 25215.4 85144.2 477136 76906.1 -101687 29398.4 
83 1 37.1074 38.1378 8.05626 13.6194 -318080 43816.7 236222 -125577 -108596 -54575 
101 1 35.536 38.9456 5.48146 44.4341 -191966 -283547 -250102 -424019 -18813.8 -35736.1 
104 1 35.5277 40.7397 8.06302 15.4091 -218406 -42526.3 317097 -105941 -32866.5 104797 
99 1 33.8453 41.6603 5.60104 46.8849 289597 325578 -203852 -168801 -154620 -153665 
102 1 37.0134 41.5471 5.43916 0.47656 172183 -114492 246647 10056.2 74720.3 99269.1 
85 1 40.2379 38.069 8.12126 9.36895 100678 611337 102240 94927 68625.8 144063 
105 1 38.6516 38.9955 5.49877 0.251963 12026.9 -174908 434233 261055 7554.26 -13504.2 
108 1 38.6234 40.81 8.04232 8.82521 -85614.7 -450366 236468 -167692 -7270.61 -89454.2 
109 1 41.7728 39.0138 5.39902 0.146115 76518.1 -237050 285359 3939.46 -104702 -72004.4 
112 1 41.7769 40.7379 8.03613 9.04554 -348607 -239899 -101980 -31564.2 -2352.47 -19454.3 
106 1 40.2308 41.7017 5.42687 0.212453 30377.9 -161134 354451 48193.8 -41460.1 81824.6 
89 1 43.365 38.0147 8.00117 9.53901 -187079 -117310 217218 2443.56 -112226 54369.9 
113 1 45.0644 38.914 5.30931 0.58071 -68429.5 190735 347894 -43079.4 -57523.9 -64071.9 
116 1 44.9085 40.7135 8.06407 9.0779 92034.6 -9118.47 161919 -49659.8 -109955 94489.3 
110 1 43.3398 41.6345 5.45364 0.210322 -120640 -98213.8 293400 -385051 58820.9 92316.1 
93 1 46.526 38.0082 7.94508 9.35989 81647.4 100996 223322 173156 106999 6464.92 
117 1 48.1064 39.0198 5.40422 0.298618 -572395 -148002 318448 60502.8 68595.7 47330.1 
120 1 48.1318 40.8276 8.00175 8.71273 186324 -447937 -21500 364949 -59396.5 -72433.6 
97 1 49.7695 38.0883 8.0744 9.74127 186059 -4478.04 280523 -73008.4 192612 -80500.9 
118 1 49.682 41.6982 5.299 0.322751 -140800 179780 -10274.5 -78654.6 114201 -114734 
114 1 46.5679 41.6356 5.35629 0.189229 -243394 -427948 169124 207860 -11234.9 25386.5 
123 1 32.2915 44.545 5.51382 43.115 -390479 -181044 -97131.2 -109981 -26835.3 156903 
100 1 33.771 43.508 8.05755 15.0699 85222.6 96734.8 -64660.1 -296190 61916.8 -210936 
103 1 36.9582 43.4975 8.06419 9.30511 598122 245778 388099 148905 127181 174550 
127 1 35.3717 44.4086 5.42236 0.161338 -19841.3 392952 342209 104471 -141624 -57344.9 
107 1 40.1753 43.4213 8.08943 9.67291 141835 -2136.14 427493 -280874 81128.1 -146717 
131 1 38.4853 44.4478 5.44949 0.248439 229296 247460 -148412 42715.1 160502 -428651 
135 1 41.7104 44.4318 5.45345 0.140614 146607 85552.5 -197503 -53191.1 -221191 -157293 
111 1 43.3299 43.5371 8.01568 9.48143 290128 148834 165664 -53957.2 -14505.5 31753.2 
139 1 44.9123 44.3616 5.34483 0.288951 460760 300423 232632 -125020 64148.8 -68441.9 
115 1 46.6334 43.4126 8.00066 9.17558 306303 14798.9 348540 110839 8857.24 -67886.8 
119 1 49.8087 43.5057 7.90128 8.96917 -125049 111397 312213 -168904 -305456 -102364 
143 1 48.128 44.5049 5.42055 0.247261 80214.6 -120765 76511.5 20061.6 77328.2 -93760.1 
121 1 30.9047 47.2323 5.44603 48.3678 -258427 -365777 235688 175763 -118368 245785 
126 1 32.152 46.2911 8.13776 14.7117 -23570.4 136551 -49263.3 -93808.7 -53206.3 187031 
122 1 30.6864 48.9898 8.1148 32.3014 -50654.6 127349 415605 -34469.2 -220484 63285.5 
46 1 32.3083 49.9633 0.186205 15.4267 -531080 441654 -216231 -174142 -240852 -189408 
212 1 43.2702 47.0597 10.6846 9.03617 -102331 -29161.1 343156 -88137.2 -64124.3 -116359 
125 1 33.8264 48.9772 7.89419 9.1752 432576 -28448.8 225913 143682 49898.2 -190572 
124 1 33.897 47.1277 5.49112 0.61887 -366349 -180611 -109698 -231707 -194745 -432385 
128 1 36.9721 47.225 5.33661 0.181068 -174676 94418.6 -124825 65183 -215253 -97304.3 
129 1 36.9625 49.0385 7.97145 9.59808 -105632 232046 233421 227571 4479.67 -79559.3 
130 1 35.2993 46.1955 8.05088 9.17968 392827 291830 205847 309693 -194541 -62588.1 
218 1 44.8795 46.3277 13.2755 8.68199 63465 -84070.2 -73428.6 46421.4 -79008.2 94556.7 
132 1 40.1679 47.2726 5.31446 0.382796 -267002 -109483 -360957 204121 -99137 -177221 
133 1 40.0534 49.1234 7.98951 8.3363 -281115 150360 -437537 -136897 153352 82241 
134 1 38.4745 46.3207 7.86165 9.98608 144908 153415 150252 80127.9 -109812 -350569 
138 1 41.6079 46.2391 7.93135 8.66663 269927 381885 123160 -57660.4 194539 -168435 
213 1 43.2481 48.9623 13.1794 10.1879 -380987 157529 -162899 320273 81900.9 87188 
136 1 43.3045 47.2874 5.43007 0.236572 -209179 220098 -131909 58616.3 -140008 203194 
137 1 43.2926 49.0862 8.07869 9.52326 70917 13313.1 279918 94897.5 -30856.2 -112603 
142 1 44.821 46.2835 7.89333 9.42191 324287 291927 7018.03 -135290 44315.2 144096 
216 1 46.4221 47.1272 10.5509 9.61056 -55929.7 111887 422183 -93352.2 149175 -24518.4 
140 1 46.4889 47.1719 5.47512 0.295345 -117678 187297 100889 105777 104738 151630 
141 1 46.462 49.1151 7.97433 9.50662 101085 210909 184309 138768 -232651 95620.2 
144 1 49.654 47.2009 5.44809 0.223533 -216303 -369690 158544 113117 -41522.9 23987 
145 1 49.6253 49.0371 8.03233 9.35199 170637 109628 -59014.1 -133331 -219003 27006.1 
146 1 48.0696 46.2517 8.03669 9.99604 243834 194690 -575351 -177150 -49575.2 -121421 
163 1 41.9177 33.5322 10.7179 29.9544 -114968 -208966 -168090 -95835.3 -335850 121063 
153 1 43.3312 32.5568 13.1698 19.7959 -54012.1 -553727 -354514 -148903 -49254.4 196752 
155 1 46.613 32.4933 13.2522 14.7581 477265 466982 557043 43061.7 -163812 -220287 
154 1 46.5279 30.8827 10.4316 40.0416 -108403 -764283 -248088 27354.8 291722 -55313.5 
157 1 49.7264 32.6204 13.26 14.9648 -1003.08 379061 120649 -178769 120119 -222630 
156 1 49.6466 30.9427 10.5074 21.1001 642797 -356654 195062 55581.3 153188 301301 
158 1 37.1725 36.1802 10.6379 33.5501 -346629 -236182 487896 -234989 15971.1 6404.65 
160 1 40.2165 36.237 10.6701 12.7943 151597 -250492 501955 163774 96261.8 137700 
162 1 38.6703 35.3147 13.2952 32.8322 -44507.7 -14379.4 184284 -272534 -250669 -67279.9 
166 1 41.7965 35.2491 13.2493 12.2027 -398304 63580.4 -314080 -114977 -181804 -152762 
167 1 44.9889 33.4105 10.6895 12.6962 -493772 -332161 263414 179553 58612.5 -89310.8 
164 1 43.4382 36.2228 10.5988 9.01739 116823 52908.1 470018 -83697.7 -95215.1 -7492.84 
170 1 44.8896 35.1503 13.28 8.94608 -382152 75504.6 -273162 -18702.2 43224 30716.1 
171 1 48.0207 33.5148 10.5578 8.59651 -276251 -424949 538543 186946 53229.9 42010.7 
168 1 46.584 36.1993 10.6715 9.18325 61527 55937.1 371176 377774 -129880 -91378.2 
174 1 47.9954 35.3741 13.3286 8.37334 -217229 -105130 -350175 312009 9586.54 258839 
172 1 49.7481 36.2104 10.7183 8.9905 87972.6 -25676.6 23406.3 455902 -77335.3 -51124.1 
177 1 35.5308 38.9129 10.675 25.4448 20766.2 346965 -2724.82 -61727.8 36031.8 -66965.9 
159 1 37.0895 38.0387 13.3044 15.0429 -104515 197457 639313 -154273 20808.6 80843.7 
180 1 35.4779 40.6899 13.2601 15.4803 -127309 -109249 495982 -371133 -105129 160234 
175 1 33.9928 41.758 10.7055 21.4979 -373690 -516979 157283 -509477 -24754.1 28264.3 
178 1 37.037 41.7137 10.7023 8.8588 -120151 -85010.3 21205.6 214657 -54986.3 167338 
161 1 40.1933 38.0408 13.2675 9.29653 215817 181141 119481 -18040 55230.9 162766 
184 1 38.5463 40.7758 13.2587 9.18295 -167389 -39209.9 163829 7471.09 44742.4 131750 
181 1 38.6263 38.8381 10.6263 8.64823 -62893.7 -119758 -101781 30360.2 -72206.2 -135674 
185 1 41.8319 38.9032 10.6593 9.20732 -58457.9 -278235 -58734.2 88567.7 -103066 -115138 
182 1 40.2185 41.5786 10.7569 8.91223 -124998 147286 -10004.4 142669 -30578.3 128394 
188 1 41.769 40.7149 13.2657 9.38891 -199116 18403.5 -26165 -26446.1 -189156 46035.8 
192 1 44.8865 40.7517 13.2707 9.1892 121474 61915.9 421059 -176129 161403 -4051.29 
165 1 43.3989 37.9898 13.3079 9.5002 210772 150413 129353 -74664.5 -174118 210381 
189 1 44.9985 38.886 10.5956 9.17571 -84469.5 -479868 263869 -283820 5299.79 115690 
186 1 43.3179 41.665 10.639 9.91747 -122904 -19821.7 85739.2 -56007.9 25837.6 -48347.3 
169 1 46.5558 37.9547 13.2849 9.94973 74654 -236106 375470 331149 44143.6 -140770 
196 1 48.121 40.6958 13.2488 8.6054 23202.6 -74571 -181148 53505.3 -170149 -29817.8 
173 1 49.7576 38.0391 13.2462 9.88197 53342.6 -668239 149965 205696 60993.1 -161443 
193 1 48.1462 38.9894 10.6236 9.7546 -82410.3 -439352 276393 137812 117263 -105882 
190 1 46.538 41.5593 10.6491 8.95593 117658 -380052 44401.6 114029 -75910 -55422.7 
194 1 49.7305 41.6379 10.5862 9.50404 80681.4 -744911 210376 -63623.6 -115843 -219763 
199 1 32.3147 44.4998 10.566 28.9389 -307744 -145544 -414829 -106145 108019 160255 
176 1 33.6156 43.4832 13.3248 14.7018 556487 472099 637942 -200224 6844.57 -15326.3 
203 1 35.3752 44.2936 10.6996 8.98064 90919.7 -488952 601677 -81929.9 -30817.6 -36311.8 
179 1 36.9043 43.3996 13.3958 9.5506 675664 12203 357085 68057.2 7943.87 -149438 
183 1 40.1293 43.4625 13.2915 9.53377 -80083.9 -441339 -26005.6 -137540 -233721 -10296.5 
207 1 38.6155 44.3616 10.7153 9.0112 416027 93342.4 329065 -80660.4 -59955 -181832 
211 1 41.7851 44.4019 10.6396 8.51386 -117210 -144730 69354.5 -32036.4 -131824 -71340.2 
187 1 43.2653 43.5273 13.2121 9.10501 188168 365747 113809 2979.88 -122500 -822.413 
215 1 44.9664 44.3876 10.6426 9.50158 -146468 -69386.7 375822 -172481 -27785.8 125782 
191 1 46.4896 43.4675 13.2173 9.66622 125440 212806 262188 -129569 2265.27 66321.2 
195 1 49.6483 43.4845 13.1092 9.33182 160992 452678 -155807 -127749 -56563.9 192569 
219 1 48.095 44.3762 10.5874 9.8955 -482642 81838.3 -11739.4 8976.13 -306444 182843 
224 1 35.4228 49.8831 10.6802 9.05661 -175732 -179738 33326 -165677 -30871.7 -57907.5 
202 1 32.1107 46.2434 13.2946 15.4431 -42672.1 509914 783996 -112394 -85062.4 -98434.3 
198 1 30.6546 49.0548 13.3713 31.2294 -82317.4 226228 503039 -58863.7 -178908 138976 
197 1 30.7288 47.2614 10.6866 32.6297 -155919 84949.6 -25362 599.947 102400 139432 
201 1 33.7429 49.0187 13.2789 9.20874 269979 -3836.49 93103.2 -61544.8 -113754 -60617.6 
200 1 33.8422 47.1673 10.6862 8.69842 220617 50344 414667 144870 -124083 -96537.2 
205 1 36.9278 48.9802 13.2433 9.61324 32532.6 -111810 -5999.18 52108.7 -193799 -80029.4 
204 1 36.9794 47.1713 10.558 9.10749 62972.8 155890 506573 -89814.7 -46231.8 -77614.1 
206 1 35.2483 46.2861 13.3321 9.0981 440675 547166 319200 130946 -56113.8 46066.4 
226 1 41.655 49.8528 10.703 8.6405 -178496 63841.1 -39212.1 -171212 -74417.1 43352.2 
227 1 44.8613 49.9498 10.7075 9.67075 64487.8 91432.1 86095.8 -50642.9 -136645 175686 
217 1 46.3809 49.0578 13.2417 9.34432 98724.6 169836 192389 -102559 -61838.9 183934 
209 1 40.1048 49.0071 13.2815 9.6471 -254435 -33650.5 -129720 174224 241182 -35054.1 
208 1 40.1284 47.1919 10.5218 9.24795 -325640 -260500 449858 -114325 27352.2 2072.75 
210 1 38.4622 46.1389 13.2899 8.79929 -160970 358035 345174 25496.3 -34578.5 -143361 
214 1 41.4937 46.2304 13.2341 7.75316 -19934 -68063.4 100853 3832.48 311400 -144479 
152 1 48.2286 49.9795 5.41077 0.62421 -22970 -109040 287800 -116209 -148133 178272 
151 1 44.9474 49.9991 5.49377 0.114805 285487 -4747.09 -442905 40417.8 -277323 61634.7 
5 1 49.9205 30.997 0.0784112 32.6528 -218647 -286150 -13768.2 99184 250040 44462 
148 1 35.2496 49.987 5.27415 0.918241 121203 91987.9 272945 -94005.9 223361 57214.1 
150 1 41.7204 49.9928 5.49578 0.146175 54413.3 -185153 66350.4 179835 200115 66860.3 
228 1 48.084 49.8872 10.7071 9.29566 -71440.7 -88596.3 229651 33611.7 35760 9618.81 
149 1 38.5711 49.9488 5.38575 0.103654 11022.8 -292317 124809 22596.5 -18805.9 204553 
225 1 38.5176 49.8562 10.5532 9.19292 -470110 42993.3 67136.3 -59023.4 112385 -189712 
1503 1 48.2156 49.914 0.170605 8.85924 9497.08 -117333 -106053 -156243 -302827 -305332 
53 1 38.5866 49.9583 0.120554 9.6028 234005 -130745 106360 -186899 69313.5 -59986.6 
230 1 43.5072 30.7715 15.6493 97.6817 -729371 -238525 -337649 -18290.8 -91468.8 127434 
229 1 43.3847 32.4596 18.3326 20.2796 166146 69761.2 663756 -153202 115553 142983 
239 1 41.8648 33.4412 15.7314 22.9697 81271.1 -11516.9 -4383.3 -258121 54743.1 -102.912 
243 1 44.9556 33.4494 15.7635 9.62669 224571 -429254 -21664.2 -298016 104694 99379.4 
232 1 46.4299 30.714 15.9721 45.5185 190172 338552 152273 53765.2 -183816 -35887 
231 1 46.6273 32.5485 18.5485 14.7464 556990 -294661 420994 124718 106636 95597.9 
3049 1 49.6455 30.6209 15.7337 60.4621 415906 300503 -23443.6 109204 21940.3 88174.5 
233 1 49.8613 32.5076 18.3606 14.6929 137332 -128564 510360 86669.2 167738 286424 
247 1 48.1814 33.4533 15.7641 9.3044 75329.2 314428 -222635 214008 -13342.4 -118624 
234 1 37.0193 36.3036 15.9241 34.972 -264794 -291260 160764 80443.4 -146562 122451 
236 1 40.135 36.2523 15.7878 11.4659 18031.6 -215972 -146574 57311.9 -180033 -46741.6 
238 1 38.5926 35.4969 18.4623 31.1406 -180676 -159189 -55115.7 -218573 -113368 -93163.5 
242 1 41.7477 35.1593 18.3396 12.1326 435151 116556 146720 -203885 80958.2 13064.6 
240 1 43.2771 36.1886 15.7594 8.58362 128456 -39181.2 -494317 -181588 54364.9 -48495.1 
246 1 45.0084 35.1107 18.4176 8.801 551233 126561 237286 89926.4 263219 69520.6 
244 1 46.4833 36.0589 15.9 9.18963 147401 -233893 -341672 36214.2 370515 -204910 
250 1 48.2979 35.164 18.4986 8.88158 236100 70845.5 41228.3 -156460 1457.33 145616 
248 1 49.725 36.2011 15.866 9.14361 -106523 -30813 -240962 203967 144170 -142888 
253 1 35.3958 38.937 15.8181 36.6501 216769 -94212.4 -11465.5 -55280.5 67001.5 113823 
256 1 35.4335 40.8072 18.511 15.7173 28403.2 -286056 612542 -360945 243498 124987 
235 1 37.0761 38.1947 18.4595 12.7959 -84124.9 -242000 551741 -238081 151906 -107672 
254 1 36.9218 41.6183 16.0269 9.66488 558982 223056 2571.88 31713 319336 44510 
251 1 33.695 41.7032 15.9131 26.3282 136398 -159839 364196 -47585.8 -18205.5 145891 
257 1 38.6374 38.9311 15.9311 9.13595 117777 -67303.8 107387 55916.6 197981 6305.02 
260 1 38.6443 40.7107 18.6185 9.84295 -43376 -251150 -483740 -301326 8373.28 -51886.6 
237 1 40.2665 37.9776 18.4698 9.03377 -280483 -161618 -383051 -177146 21748.9 75324.1 
258 1 40.0975 41.6933 15.8997 9.48072 288693 -207847 653370 -64303.9 -36666.6 54138 
264 1 41.8016 40.7409 18.545 9.89976 -162988 -43116.5 -125606 -338031 163574 -71952.2 
261 1 41.7245 38.9755 15.9575 8.84554 -88854 18633.4 -11732.5 14920.6 81450.6 100294 
265 1 44.9476 38.8293 15.9102 9.84263 294423 97287.6 -331139 10962.8 -230099 16871.1 
268 1 44.9107 40.6138 18.4982 8.8292 -170127 36446 -202750 77286.9 -13719.2 -18825.5 
241 1 43.357 37.8546 18.4165 9.12914 -238384 324273 -127050 -41358.8 44095 178230 
262 1 43.3509 41.6256 15.8846 9.11374 301073 22564 216526 -85117.1 81455.4 -82925.4 
269 1 48.2388 38.9572 15.8567 9.22793 216766 -27859.8 128914 95571.1 24728 46834.2 
245 1 46.5154 37.9159 18.4046 9.9443 58367 330045 -82670.6 79280 -72316.3 -96775.4 
272 1 48.0856 40.7572 18.4556 9.08093 141320 120336 -260842 163493 -120520 -59199.5 
249 1 49.761 37.9351 18.4997 9.29649 79766.7 199389 -275278 -138407 67291.9 -127548 
266 1 46.5819 41.6547 15.8903 8.91686 -129013 194889 39384.9 145539 -99802.4 -89229.8 
270 1 49.6367 41.7559 15.759 9.58744 -177841 -29981.2 339792 -152675 -17818.6 -71067.2 
275 1 32.0775 44.3497 15.9571 27.0204 176086 81545.4 101473 146260 140534 -169313 
279 1 35.2929 44.3732 15.959 9.75573 659461 140515 210942 137508 -59481.5 21762.2 
252 1 33.7373 43.5057 18.6146 16.2388 -331839 130380 90151 -192165 25872.7 63234.3 
255 1 36.8105 43.4775 18.4962 9.07482 31441.5 -153397 -249764 -176699 -15829.7 19334.1 
283 1 38.5213 44.4226 15.9493 9.44001 110589 -129203 123837 134917 -130610 -9103.4 
259 1 40.0306 43.5191 18.5932 9.27798 424546 282.085 63339.9 -273076 -261523 118071 
287 1 41.6895 44.3327 15.8981 8.71218 28120.7 -286281 154915 -9916.53 -135996 -191001 
291 1 44.9126 44.4333 15.8124 9.76669 301643 -74515.5 213873 -63990.5 19663 -46803.6 
263 1 43.2601 43.453 18.4852 8.898 317900 -85898.9 -16647.4 -170332 -95450 -44811.7 
295 1 48.1093 44.4674 15.8536 9.00678 -126348 -505931 204591 56030.9 -92078.7 90246.2 
271 1 49.6588 43.5672 18.4546 9.17512 278320 347918 79161.9 33106.2 42097.8 99802.8 
267 1 46.4771 43.4139 18.4305 9.47408 153649 -57685.2 -67189.9 104917 -130732 -184865 
273 1 30.6613 47.2456 15.8634 31.6946 -392643 95617 -105036 11032 -68817.9 260900 
278 1 32.1185 46.3294 18.4268 14.2583 -155730 210536 481788 56422.3 67522.9 6692.19 
274 1 30.7468 48.9572 18.5827 27.6248 -225502 -568446 9900.19 -102249 -148102 -50277.2 
299 1 32.2181 49.9125 15.9509 12.1001 -65880.6 -143689 196670 414968 -24138.7 -165753 
276 1 33.7114 47.1231 15.8927 8.82119 84040.4 469814 -77451.2 267308 238793 -2848.03 
280 1 36.87 47.1268 15.9445 9.88417 215034 46694.8 221187 37193.3 -205788 49439.6 
281 1 36.9576 49.0956 18.5416 8.88373 -518945 -170946 208790 -65366.5 -35958.1 139070 
282 1 35.2508 46.2645 18.5313 9.68992 156842 70135.9 -7142.52 227993 4342.79 76025.7 
277 1 33.8804 49.0168 18.4952 8.56519 142386 -347795 288351 128277 -45874.2 -53162.8 
300 1 35.344 49.9 15.8263 8.97386 323627 202478 130087 -14870.5 87167.3 17902.1 
284 1 40.1645 47.0864 15.8307 9.05467 64569.7 57327.1 -244101 94627 -22460.3 -3331.77 
286 1 38.3902 46.2644 18.5241 9.12082 340205 275449 17091.5 156212 -50860.7 -57006.3 
285 1 40.0566 49.0702 18.4204 9.34633 -49784.8 651031 330162 -27735.8 -190075 48564.5 
301 1 38.5413 49.8542 15.7883 8.89465 215151 656030 -27289.8 2004.67 -102651 19031.6 
374 1 48.012 46.2203 23.7235 9.61285 310374 131499 112163 -10310 -244118 29208.6 
290 1 41.6693 46.1987 18.3997 9.54592 180143 76360.5 -117863 -131039 -55541 73664.3 
288 1 43.2979 47.1136 15.8565 9.38947 -54123 107977 32766.1 126047 236634 -82337.3 
294 1 44.8447 46.1897 18.4397 9.5233 -185991 62352.8 -90746.9 -13259 -51219.8 -24479.8 
289 1 43.2695 48.9437 18.4325 9.25058 143759 308974 -2749.74 -23171.9 152267 44797.8 
304 1 48.064 49.9156 15.8944 9.80676 -79373.8 326662 30117 -5495.06 148501 79604.9 
292 1 46.4666 47.1324 15.8778 9.19745 -468281 -385406 -565847 2674.71 -102845 -272040 
296 1 49.6231 47.1327 15.8182 9.58826 -46622.2 -327736 135191 -68480.7 -102216 122064 
297 1 49.7069 48.9993 18.4319 8.70522 320284 233180 213812 113444 -69523.2 -17810.7 
298 1 47.9416 46.2268 18.4487 8.92276 107490 -30464 -274199 234550 -92574.3 60191.6 
293 1 46.4616 48.9699 18.3329 10.1954 2147.76 -238131 -437439 133830 -107082 -33486.8 
373 1 49.5801 48.9941 23.6173 9.63199 317826 341657 29026.2 -42418.2 30497.5 646.992 
319 1 44.9645 33.3363 21.0571 13.2403 423418 -146697 -279280 100947 384010 -240031 
315 1 41.9077 33.4392 20.9065 30.2106 -203882 -304939 292859 -30317.8 67576.1 29649.5 
306 1 46.863 30.9206 21.1189 43.0441 -516542 -627202 -595453 -75962.1 77407.1 -65046.6 
308 1 49.8446 31.0086 21.0065 39.795 -357272 -979293 -321547 -5824.05 34190.7 38592.2 
307 1 46.6771 32.3855 23.7217 12.6569 437344 159570 -209567 -59038 -156574 -360263 
310 1 37.2023 36.2368 21.0818 32.8182 -419019 -198192 -73257.2 184024 12295.6 -69499.9 
312 1 40.2455 36.0749 20.9853 11.42 -213784 -38598.8 -183932 19261.2 -21508.5 73176.6 
316 1 43.382 36.1246 21.0123 9.29921 95458 144759 204555 127586 -139713 202388 
323 1 48.2954 33.4926 21.0129 8.74813 -294982 -1.50186e+06 -251997 -52908.8 -251218 223497 
324 1 49.8497 36.1329 21.0626 9.33011 -76864.3 -535715 70976.6 -119385 -293617 257814 
320 1 46.5736 36.1269 21.0973 9.89918 347762 411756 317670 163013 118774 -16031.5 
329 1 35.63 38.9258 21.2223 30.5231 214277 184291 -61483.1 -140316 -3252.35 -236292 
330 1 37.071 41.7004 21.0611 8.67559 788924 265617 -16409.6 -11174 61067.1 9540.4 
327 1 33.7533 41.7436 21.1329 26.7324 394434 -149652 -173966 -55875.8 -118827 165176 
333 1 38.7331 38.8982 21.0779 7.96364 -189844 95599.8 -69739.6 -60039.7 -107038 247969 
334 1 40.2126 41.6415 21.0921 8.8051 260200 -23842.8 -281545 -94576.9 -195661 44086.1 
337 1 41.7783 38.8522 21.0542 9.63184 -50691.7 445049 33205.7 271119 -97461 40899.5 
341 1 44.9957 38.8567 21.0225 8.82128 125143 -219801 156213 -9651.95 22643.7 121035 
338 1 43.46 41.6602 21.0803 8.07911 20535.8 -208932 -272330 -140339 -100293 -142030 
345 1 48.1954 38.8664 21.0089 9.50971 215982 197774 253493 18960.2 162661 -130661 
346 1 49.8002 41.6379 20.9464 9.51049 305802 218928 281889 -162769 -36967.2 -32277.4 
351 1 32.2241 44.4818 21.1267 23.8592 -487260 -264244 203805 -58540.4 192808 -230685 
355 1 35.2858 44.4393 21.0864 9.15532 -222218 284679 -145431 13636.3 -52902.3 36100 
359 1 38.4091 44.4893 21.1884 9.50452 195042 30935.1 -104788 -152482 317365 60883.2 
363 1 41.6753 44.4306 21.0499 9.18264 43463.7 -15450.9 -166504 -71835.9 -195886 -140039 
367 1 44.7975 44.3596 21.0606 9.93169 60354.2 -313149 64023 -389216 -1815.97 82219.9 
342 1 46.5395 41.6017 21.0357 9.575 -263626 -40785.5 -31459.8 -75808.2 -97120.8 -28397.8 
371 1 48.0299 44.3902 20.9872 9.90393 431637 82785.5 129243 -24606.8 14928.2 56591 
349 1 30.576 47.1354 21.1043 37.415 -49851.2 2682.5 424545 112752 -67407.3 202425 
375 1 32.1226 49.8955 21.0685 11.328 -51617.9 29395.8 -228507 130970 -309967 236077 
352 1 33.6973 47.1593 21.1643 8.96824 435771 7550.64 353420 -27160.3 92639.9 -44509.3 
356 1 36.8973 47.2667 21.0722 9.58221 331209 13292.1 198272 236255 121298 -82377.8 
376 1 35.2568 49.9081 21.1725 9.16591 319454 39959.9 -120288 36508.3 -162015 -89774.3 
360 1 40.1578 47.2143 21.0844 8.82394 209913 315235 437319 -70418.2 -23508.6 -43592.7 
420 1 47.9834 49.8713 26.2431 9.59173 -59479.8 -315938 -22346.7 -311134 -35098.8 24279.6 
379 1 44.858 49.9101 21.0553 9.55285 -146811 -415765 33384.1 -127540 -94066.5 2567.3 
302 1 41.7311 49.9545 15.775 9.50136 42820.6 366309 70695.6 -89041.8 -105359 183506 
364 1 43.2658 47.1607 21.0318 8.91574 -363637 115080 271453 -47745.7 13434.2 28545.4 
368 1 46.3909 47.0948 21.0419 9.56388 -228693 88451.5 306504 15123.3 -20718.6 -130386 
372 1 49.568 47.1531 21.0496 9.6179 96468.4 -171372 314199 117812 -85518.2 -70140.1 
380 1 48.0237 49.7966 20.9804 9.4082 -53397.7 -38000.1 279960 254300 -73677.8 209149 
305 1 43.4083 32.4041 23.6442 20.8916 199122 134292 595725 -346060 313767 -278291 
381 1 43.5559 30.6171 26.3126 102.331 -186295 27240.9 -150779 158888 70397.9 -97076.3 
387 1 45.0545 33.397 26.2321 8.46119 -322836 3543.7 497033 -172226 217488 -202355 
309 1 49.7848 32.6274 23.6633 14.6915 -144880 -79791.8 583023 215467 -47165 -26932.9 
382 1 46.5892 30.6155 26.1691 50.0894 280961 -249932 -538976 -90476.4 26370.3 147240 