ITEM: TIMESTEP
40000
ITEM: NUMBER OF ATOMS
5538
ITEM: BOX BOUNDS pp pp pp
0.0372549 99.9627
0.137726 99.8623
-0.86265 100.863
ITEM: ATOMS id type x y z c_csym c_2[1] c_2[2] c_2[3] c_2[4] c_2[5] c_2[6] 
11 1 40.1503 30.9433 -0.122407 93.1887 52153.9 57583.5 -42877.9 -379772 318691 188574 
87 1 41.8969 31.5895 2.42378 52.5086 -12614.3 -431792 -436490 -266460 433604 -99431.3 
1 1 43.4125 30.8902 -0.00246464 33.6556 -105301 -210715 -398688 156516 232324 -148317 
15 1 44.9791 31.7155 2.5366 15.9137 -193557 -430489 -215848 -167936 121040 -135152 
3 1 46.5142 30.9931 -0.0433021 32.6625 -259145 -385338 250774 138914 -71264.1 -56829.4 
19 1 48.1219 31.7272 2.61165 15.1119 -62069.7 -375880 -146714 6401.18 180873 -197920 
5 1 49.6561 31.03 0.091928 31.9085 -277761 -170914 -544532 -94046.6 136412 -94110.3 
1375 1 36.9082 36.3232 0.0572479 20.939 40963.2 61198.4 29342.3 -218903 58984.3 224826 
10 1 38.5275 33.6667 -0.194196 24.4586 270466 422176 -170234 -466010 337153 -35560.3 
6 1 38.3977 37.0531 2.69976 14.0686 245020 72297.5 35236.8 157229 -266236 83611.6 
8 1 40.0241 34.3709 2.47255 22.479 378652 610815 264337 -188174 -45841.4 271271 
9 1 40.1433 36.2944 -0.0390788 8.7011 521866 24999.5 144973 -194863 15768.5 74898.9 
14 1 41.7716 33.4825 -0.0385611 9.30523 234985 -255489 -499562 -338780 -187583 -330446 
18 1 44.9645 33.5677 -0.00723993 8.7402 -303771 -62697.4 33541.1 234587 -74114.8 -80295.2 
33 1 41.6073 37.1322 2.64122 9.83513 672552 211829 396631 -28929.1 -100895 -45604.3 
12 1 43.2191 34.289 2.51461 8.89089 358272 -176007 -259469 -256151 -126127 -111737 
13 1 43.3241 36.2366 -0.0593953 8.83973 93894.4 58359.6 -237252 -164309 -123141 -200390 
37 1 44.8235 37.0077 2.52791 9.26868 215002 521146 148491 171325 80590.6 18634 
22 1 48.0344 33.6351 0.043849 8.35995 -365136 -177578 -151528 27591.2 -122579 -49151.7 
16 1 46.4288 34.3662 2.57187 9.21833 287674 -230687 46677.6 -30420.6 -29860.8 -192124 
17 1 46.5325 36.3416 0.0616911 8.45422 -57805.4 -129449 -308169 111522 65079.5 -146665 
41 1 48.0334 37.0912 2.62711 9.41969 56427.8 225553 -25350 16351.1 -306539 -44503.8 
21 1 49.7186 36.274 0.0433162 9.04371 -80202.9 -123477 235864 -97009.7 -22620 -63443.8 
20 1 49.6361 34.3694 2.6343 8.49238 -28827 -276752 -224438 250974 94768.6 -116650 
25 1 36.9565 39.8233 2.70344 14.2231 -259630 50090.7 -42467.9 -37510.7 186046 -138860 
1396 1 35.301 39.0128 0.0207414 23.3892 -115659 17681.2 -208097 -187560 117598 118692 
7 1 38.4498 38.9354 0.113703 9.34748 -71977 -41726.2 -22882.6 -40172.7 118449 -132961 
29 1 39.9671 39.8446 2.65739 9.47872 -192194 316934 -119399 322493 -201724 -254131 
36 1 41.5989 39.017 0.0387753 8.96549 24812.2 -12439.3 202614 -179112 -220654 -74746.9 
34 1 43.1975 39.8827 2.62786 9.55926 209659 279022 161772 -314240 125711 4445.17 
40 1 44.7624 39.0017 -0.00698281 9.36647 136578 -165874 118347 -41473.1 172736 53288.8 
35 1 43.2318 41.7651 -0.0157228 10.0981 -136637 100221 367543 106884 -23698.5 149703 
42 1 49.5198 39.9623 2.72908 9.96166 -220921 248490 -32318.6 -114006 88226.7 155199 
38 1 46.426 39.8734 2.67118 9.31546 -88005.9 255758 197400 122535 -766.289 126313 
44 1 48.0342 39.0761 -0.016513 8.99831 95321.9 91240.8 105668 -43324.5 -85564 63115.5 
43 1 49.6019 41.8607 0.0129044 9.17482 202771 115481 139227 -71839.2 -114431 -4056.41 
39 1 46.344 41.7418 0.0244043 9.43013 -150074 -98704.2 -24309.3 41500.9 -218839 -86839.6 
1418 1 32.1576 44.6031 -0.0183313 21.4863 -182223 23367.6 -313481 -366843 36049.2 145868 
28 1 36.8853 41.6663 0.0700201 9.27784 117418 196460 236190 -42212.5 181.947 12383.2 
1392 1 33.7241 41.8077 0.00984221 23.238 15398.9 246163 -341534 -264700 147922 167051 
47 1 33.5196 45.2837 2.6496 13.1611 454181 550894 283265 21405.8 -37794.6 -230.104 
23 1 35.3104 42.6429 2.682 15.1677 148425 446731 483839 -59856.3 -25801.2 101078 
24 1 35.3263 44.4966 0.0583484 9.71781 48476.3 334229 482185 -174514 -25098.7 -38901.8 
51 1 36.7527 45.4495 2.73712 9.30387 620937 -63347.3 7025.18 122978 -200082 -145583 
32 1 40.0219 41.755 0.0584176 10.0199 127404 404783 369002 22701.7 -97599.4 -662.207 
26 1 38.4055 42.5824 2.67165 9.37631 -144832 79030.6 -343375 34936.7 -32588.4 -217053 
27 1 38.3301 44.4958 0.00679063 9.05224 -244732 273389 209018 -65441.8 -170234 60678.6 
55 1 39.9499 45.4137 2.53367 9.55758 597808 131406 121688 215840 38433.8 155122 
31 1 41.6789 44.5315 0.00999447 9.17583 5188.32 -468753 -73387 -46378.7 -19884.7 -146799 
30 1 41.5559 42.7069 2.63424 9.35299 159682 424623 330204 17958.1 -138641 -68362.6 
59 1 43.2661 45.3823 2.66131 9.65786 520559 -3659.13 41687.2 -129429 40613.4 -188931 
63 1 44.7657 42.5745 2.74945 9.33066 116253 284304 407278 24529.3 4593.08 -27167.4 
66 1 44.8394 44.5096 0.00605365 9.7419 -169215 -43533.2 209104 224926 -52237.4 -246178 
67 1 47.9347 42.6833 2.52125 9.80248 271305 224460 -9512.56 82960 71130.4 -107245 
64 1 46.4347 45.5636 2.49813 9.15866 16818.1 -187878 -180926 350026 -10499.1 -277984 
70 1 47.9585 44.5461 0.0138748 9.35473 31164.4 -333612 -205429 126263 139886 -44505.1 
68 1 49.6657 45.4318 2.60459 9.62582 -61024.7 16665.2 -185143 -99670.6 208192 119414 
45 1 32.1874 48.1014 2.63244 17.5055 -235318 -137974 253192 224777 243392 81566.4 
1414 1 30.5172 47.2126 -0.121394 42.1606 -323214 143103 120614 82769.1 171417 94808.4 
53 1 38.4076 49.9298 0.0766959 9.26173 214585 -53608.1 73882.9 -24651.5 184477 -24580.6 
50 1 33.5815 47.2751 0.021309 9.17413 -133645 -181716 26267.1 -133671 166956 -151026 
48 1 35.2229 48.0791 2.62452 8.95661 -109578 60265.5 -133551 527635 75408.1 -54143.7 
54 1 36.7456 47.2994 -0.0117721 8.70006 371508 -225218 161836 -44982.4 -103202 -53614.6 
222 1 48.0873 46.3497 13.027 10.2161 424002 270102 269893 206762 -46244.8 58630.4 
52 1 38.395 48.1541 2.65807 9.62369 217750 -309949 251090 -4810.3 76452.2 8447.11 
58 1 40.0229 47.2054 0.0352135 9.64811 480730 -38148.4 -198354 137301 -184174 137642 
149 1 38.4878 49.8997 5.28813 0.199034 22883.7 -2625.01 86393.5 81450.9 158251 -44608.7 
148 1 35.3107 49.8877 5.19461 0.30017 339316 -601956 336285 -219204 -164349 -15808.1 
56 1 41.6661 48.1759 2.57595 9.63144 293376 237620 -310396 108327 -169172 142408 
62 1 43.2365 47.1613 0.0556278 9.16718 124773 -251891 -101030 -38713.7 253040 28620.3 
60 1 44.8714 48.1141 2.63043 9.82322 -163164 -462946 -121515 230313 -55854 318953 
220 1 49.7252 47.3209 10.4519 9.55088 -48304.4 110111 222952 -5840.18 47084 145612 
225 1 38.639 49.9335 10.5541 9.0464 161216 -273461 -65926.2 225417 107830 -327767 
69 1 49.5972 47.2031 0.0560374 8.50854 -251529 345024 -155122 -57917.4 -11985.1 79354.7 
65 1 46.5494 47.3391 -0.0254644 9.12554 -164178 -426601 -11549.3 376861 -231424 270886 
76 1 48.0425 48.2057 2.69626 9.00195 -393219 -108591 -443301 -231108 116798 48807.7 
77 1 43.5082 32.4183 8.08282 36.3931 -197618 55632 5190.63 -618289 -162585 -336144 
4 1 49.5795 30.7735 5.27568 26.9017 13928.2 -520959 301992 414132 -233707 -142039 
2 1 46.5197 30.6454 5.17311 38.9059 -208246 187358 536591 -82947.9 -9950.34 50856.2 
78 1 47.9829 29.8368 7.84098 45.2953 40479.1 94.0667 111887 62720.8 -193119 -52654 
79 1 46.5388 32.5432 7.87617 11.6511 -306092 85407.5 489583 -230812 136843 196067 
81 1 49.6706 32.5811 7.84629 8.56798 -179472 735892 -108967 255703 -150440 73815.4 
82 1 36.9247 36.2778 5.40573 53.4567 -510226 -497336 -110533 -309992 27320.1 -33301.1 
84 1 39.9467 36.1969 5.21745 17.8193 -35212.4 -482868 -170130 310943 -241190 -217117 
86 1 38.5051 35.382 7.93319 35.3865 -357504 -493334 -384683 -196263 -60155.1 -223455 
90 1 41.7196 35.1969 7.72866 13.6113 43550.7 620556 -7472.2 -380902 210361 -342651 
91 1 44.8685 33.3738 5.1799 17.1672 316485 -66506.4 587912 161690 -57270.8 -192173 
88 1 43.3069 35.9843 5.1601 8.78876 271470 335730 58862.3 146040 58915 -4885.49 
94 1 44.7946 35.1345 7.80328 8.80294 -118083 26783.9 -153497 77925.8 -27009.6 -61971.5 
95 1 48.1397 33.3655 5.2492 0.490462 282168 84733.2 -85834.1 256359 66210 -181780 
92 1 46.4323 36.1423 5.2453 0.19574 211022 651031 98475.2 153760 -119855 -20529.4 
96 1 49.6183 36.2308 5.16188 0.165163 -75049.8 213947 -223488 -10353.7 -19553.9 118901 
98 1 48.0627 35.2972 7.72709 10.0412 492320 216961 -10019.9 56162.2 -114750 11776.5 
83 1 36.8898 38.0119 7.96422 15.7297 149418 134777 366596 -138248 25436.3 -171818 
101 1 35.3583 38.9764 5.24331 45.2755 -214778 -433477 -301958 -145521 138593 -162664 
104 1 35.3139 40.7429 7.77409 15.7387 -34218.5 288642 544975 -300238 -91150.7 39025.6 
102 1 36.8545 41.6226 5.20881 0.146159 -501079 51830.6 -371153 -318099 2392.44 -43654.9 
99 1 33.8105 41.6744 5.26554 35.1314 -396478 -120311 -327912 24015.3 -125638 141252 
85 1 40.0733 37.9411 7.66221 9.97887 357079 115699 -230910 -172262 -33395.9 70876.4 
105 1 38.4269 38.8294 5.28244 0.346026 -357312 -563281 -268460 -32595.3 -435972 65968.7 
108 1 38.436 40.7673 7.87259 9.17004 342279 479051 382322 182568 202238 94233.9 
106 1 39.9595 41.5922 5.21124 0.309174 -7332.55 262915 76902.4 169476 -12820.2 -33804.4 
112 1 41.6331 40.7281 7.84396 9.52405 394347 466351 166337 -107265 74758.4 60786.1 
109 1 41.6498 38.9228 5.18818 0.194284 299363 424661 -429011 48198.1 139973 5908.17 
89 1 43.2771 37.9529 7.69281 9.96936 276170 618496 39925.9 107771 73412.9 326693 
113 1 44.8624 38.9872 5.25442 0.230315 163282 586782 -116711 -43825.9 104988 187664 
116 1 44.8733 40.8638 7.79356 10.1577 452059 444553 324159 32119 3279.74 85676.5 
93 1 46.4569 38.0197 7.75549 9.67422 96708.9 230727 -230886 130746 64038.7 3273.37 
117 1 48.031 39.0466 5.19527 0.193201 -98386.6 85784 -595721 1087.24 174570 86691.1 
120 1 48.0593 40.7439 7.79625 8.73583 111344 121321 -157576 91676.6 -18394.7 67191.8 
97 1 49.6534 38.067 7.8112 9.71869 -38435.5 -508561 393003 476561 9939.36 11919.5 
118 1 49.5583 41.829 5.2682 0.369787 18428 -27303.9 -14310.2 -196927 216505 -104888 
123 1 32.2437 44.4454 5.30786 43.1209 -575777 207221 -739497 -124748 19543.2 15379.1 
100 1 33.6186 43.518 7.88807 14.8314 145551 167043 362738 -281655 62517.2 140124 
103 1 36.8398 43.4595 7.83403 9.17891 525676 -6047.77 390241 96002.8 -136224 107680 
127 1 35.2063 44.4684 5.31763 0.303666 -238395 348601 85159.4 -224808 -4139.3 -36319.3 
107 1 40.011 43.5583 7.82699 9.37386 125921 416153 233511 15773.2 255885 -11404.8 
131 1 38.4294 44.3793 5.16295 0.339939 59114.8 -38310.1 -5203.76 19041.9 -88947.5 -120146 
135 1 41.5608 44.4716 5.24808 0.154847 -61551.9 -114985 166113 307839 120349 9477.31 
110 1 43.1465 41.7485 5.26476 0.211183 222185 -12814.8 -177744 -95591.5 196021 111904 
111 1 43.175 43.6015 7.83095 9.73462 350996 25496.1 151335 -4761.66 72181 -26908 
139 1 44.8333 44.4463 5.34659 0.710507 -40762 -12210.4 -212872 130824 -158479 -109250 
114 1 46.4395 41.7573 5.23033 0.148134 -168290 -370165 -305968 115022 -116013 -40376.9 
115 1 46.5485 43.6217 7.74373 8.82992 269076 41766.1 -335682 -125316 -338774 -30132.3 
119 1 49.7281 43.5997 7.82691 9.27716 -5704.74 -171140 -108772 -97014.9 156271 -146164 
143 1 47.9631 44.5191 5.10231 0.546137 -18995.9 -204120 341260 -106417 293527 59184.9 
121 1 30.612 47.2004 5.27049 47.4757 -118305 158650 -40873.8 -72933.5 -192718 153524 
126 1 32.1813 46.3315 7.7837 15.4336 -386328 639206 330693 -293588 -18487.9 -85260.1 
122 1 30.603 49.1867 7.74964 29.0148 -166026 696303 444544 -232749 129545 56998.8 
57 1 41.6952 49.9807 0.0977353 9.26287 436599 28408.1 139776 20876.2 89655.8 191016 
125 1 33.6994 49.1319 7.86445 8.71648 42321 69330.8 299256 -65995.1 240374 -260101 
124 1 33.6953 47.2731 5.28133 0.291933 -185418 202059 169376 -228834 210626 109205 
128 1 36.8063 47.173 5.24635 0.155981 -34799.4 -115176 -82136.6 149960 -182354 -178342 
129 1 36.8182 49.0231 7.91499 9.28815 118818 23899.8 104495 434422 175348 -28123 
130 1 35.1907 46.1737 7.99121 9.06648 -160751 417226 7483.88 88149.8 22444.4 -385819 
221 1 49.7747 49.1134 13.0545 9.4243 87446 -48513.6 -276935 -51826.9 -168105 -219036 
132 1 40.0032 47.1196 5.29923 0.380651 30642.1 -95356.1 444727 256891 103868 54942.1 
133 1 40.0267 49.0071 7.90899 9.52167 298082 245607 111187 192821 46874.6 106997 
134 1 38.3469 46.2565 7.78243 8.95973 294423 91626.4 93250.8 135594 229064 71142.8 
223 1 32.3185 50.012 10.4232 11.3826 7967.91 186291 -219484 561318 -40201.6 139812 
138 1 41.6666 46.3381 7.91338 9.56743 192375 -198889 166210 278031 203636 20931.4 
136 1 43.1854 47.2306 5.12687 0.504507 303777 173488 72127.6 34629.1 -11040.7 -67033.4 
137 1 43.2186 49.0883 7.89532 9.1427 14392.7 86657.4 292500 -148882 151733 -26998.5 
142 1 44.8111 46.3203 7.80924 9.64158 155283 -136700 236497 -226773 26608 -39682.5 
140 1 46.4533 47.2487 5.16291 0.25135 -19374.7 -413924 -190657 41562.9 -11343.6 41301.5 
141 1 46.3538 49.0004 7.85833 8.61242 129566 53254.6 -45447.3 -185166 -37526 133526 
144 1 49.6141 47.1628 5.22218 0.286536 16260.5 -51507.6 -45826.3 85629.2 -96828.1 79417.5 
145 1 49.6424 49.0849 7.86859 9.71531 280502 171170 -312475 -14801.8 52249.1 136778 
146 1 48.007 46.3262 7.84256 9.59648 175632 -189851 235458 -173452 57121 304628 
153 1 43.5232 32.4832 13.162 18.0917 -222900 82867.6 367896 -354219 -65247.5 -188907 
157 1 49.6856 32.5409 12.88 13.7437 55971.1 173586 -363772 6629.78 -324140 241814 
155 1 46.5483 32.5172 13.0799 12.1411 -28475.1 450434 431751 -17520.7 -135944 6644.61 
154 1 46.2258 30.7729 10.3555 42.3458 830862 -25033.1 269692 31702.8 140941 230533 
156 1 49.466 30.8392 10.3354 20.338 707784 -560893 -262454 123068 -35699.5 85472.1 
158 1 37.0253 36.2054 10.5024 35.1772 -96393.7 -249602 -269590 7891.81 75153.8 -63006 
160 1 40.1871 36.1199 10.3105 12.7944 130390 -54883.4 56058.1 -61859.3 -104987 -26623 
162 1 38.7853 35.3258 12.9394 26.1446 121346 -165714 366346 -181082 67205.3 72544.1 
166 1 41.9278 35.2485 13.0956 10.2715 -360719 -23391.5 225965 -355253 -123211 -103853 
167 1 44.964 33.5182 10.5044 10.9136 185297 -665513 -390974 23398 -111545 -289693 
163 1 41.854 33.5068 10.4918 29.535 150730 -275307 434001 -157837 134680 -106811 
164 1 43.3109 36.1906 10.3227 8.89032 -61491.6 63164.1 459649 229036 142381 70342.3 
170 1 44.9458 35.2696 12.9808 9.25206 -200675 467806 6214.57 -78149.2 4549.01 -234032 
171 1 48.1093 33.5191 10.4326 9.72053 133536 -24132.6 30100.2 471003 -165352 114356 
168 1 46.4801 36.2302 10.3717 9.78157 -9844.06 213862 514350 125410 104614 172087 
174 1 48.1224 35.3772 13.0348 8.37816 -34027.7 421416 -53268.1 100586 255876 38047 
172 1 49.5827 36.2622 10.4224 8.76127 -39493.6 79249.3 -240890 -7297.72 9915.46 95817 
177 1 35.545 39.0621 10.607 26.97 -131298 5620.1 -312332 -47375.3 39554 -261758 
159 1 37.0345 37.8864 13.069 15.269 298484 54340.8 185898 -327258 -229755 -6326.62 
180 1 35.3447 40.7646 13.1025 15.0926 38924.3 160051 -173906 -117213 75969.6 -452082 
175 1 33.7837 41.7055 10.5144 24.7717 164921 -99413.7 222673 7041.4 -138507 30228.9 
161 1 40.2932 37.9384 13.0774 8.60816 -63387.3 23540.7 352385 -87724.4 58013 102692 
184 1 38.5368 40.5755 13.038 8.68717 247186 438878 -23897.2 56620.6 148759 -148390 
181 1 38.6317 38.8795 10.4334 8.91459 41425.9 418853 314840 -18586.3 -66917.8 -169776 
185 1 41.7103 38.8925 10.4298 9.55996 -126995 229023 445963 331526 2444.89 345067 
188 1 41.6497 40.7931 13.1404 10.1264 -169092 94974 -246287 48003.1 200792 -123981 
192 1 44.8584 40.6816 12.9707 8.59847 446320 85902.9 442022 -45406.4 54854.8 -20793.2 
165 1 43.3328 38.0161 12.9872 9.90606 -127213 52522.7 636696 -293165 -35203.7 199223 
189 1 44.9108 38.9714 10.3234 9.7618 408662 202892 198549 10864.3 105341 -77047.3 
186 1 43.2389 41.7461 10.4816 9.38706 61113 260456 191546 136575 -160686 -205938 
169 1 46.5623 38.0402 13.0618 9.15615 -350861 -36095.3 439368 248477 62115.4 42682.7 
196 1 48.1377 40.8446 13.0095 9.7146 -248978 -306403 213399 320490 -63547.4 -73395.6 
173 1 49.5895 38.18 12.9248 9.00708 -339422 -240197 80032 64661.4 -145260 -98265.7 
193 1 48.1054 39.0735 10.4231 8.82039 -31223.3 -125713 -275737 23100.7 -213574 233119 
190 1 46.4793 41.823 10.4612 9.11482 120080 113261 313128 -5209.6 -45585.5 -142466 
199 1 32.3288 44.5366 10.5387 21.6879 -253172 -310112 -37112.4 -183655 38931.2 -261666 
178 1 36.985 41.7438 10.4508 8.34153 415932 -377362 267129 -135817 158433 -46440.7 
176 1 33.8284 43.4937 13.1108 15.156 2221.69 85694 -271833 -274328 -30737.6 90201.2 
203 1 35.3711 44.3766 10.5667 9.28699 -114007 -251746 -64352.5 134847 160002 42784.7 
179 1 37.007 43.4513 13.0936 10.0329 235668 276413 -212385 -20342.7 -119559 28300.1 
182 1 40.144 41.6407 10.5239 9.24762 -206098 -15226.3 128366 160665 108923 -142674 
183 1 40.1163 43.5027 13.0156 9.59108 -121125 -61000.4 -296910 134637 258397 -59744.6 
207 1 38.518 44.3441 10.4125 9.18914 -219328 -302094 -43118.7 -103711 77830.9 -143669 
211 1 41.6894 44.505 10.4923 9.52599 -9262.33 -14799.9 -149611 340954 93824 73079.9 
187 1 43.34 43.5116 12.9904 9.02924 132806 45961.7 -299829 -25569.7 -224110 -41502.5 
215 1 44.8963 44.5415 10.374 9.88146 25392.4 -19555.3 429862 164736 -20577.6 83026.8 
194 1 49.6615 41.7489 10.3643 9.35251 -33865.4 -102418 -21142.5 -188166 78977.1 14139.5 
191 1 46.5008 43.5537 13.0667 9.59781 245765 269959 -34496.2 100702 109139 -174468 
195 1 49.7599 43.6249 12.9433 9.63407 199721 -104162 346711 52485.4 75288.5 -37965.7 
219 1 48.046 44.5409 10.3529 9.62838 251516 156399 -68921 -82306.5 -70435 73992.7 
202 1 32.2262 46.4218 13.0069 15.1726 95762.2 636054 220599 -362617 40857.5 -156258 
198 1 30.6467 49.169 13.1236 32.253 -163884 701554 877376 -21411.2 -65123.2 -16302.2 
197 1 30.6566 47.3229 10.3679 41.4306 29910 596620 584839 -1806.53 -63276.2 54769.2 
46 1 32.1753 49.9702 0.174813 16.1013 -277587 192059 -240920 276786 -108435 48794.8 
206 1 35.3348 46.2254 13.0151 9.532 -114764 281801 -260101 -260170 -40603.9 -205430 
201 1 33.7327 49.2073 13.0138 8.09992 159078 358963 8757.96 -29829.3 -69472.7 314353 
200 1 33.753 47.1798 10.4313 9.61606 90035.5 -49295.1 -185888 -71180.3 366109 -85079.2 
205 1 36.8576 48.9911 13.0751 9.46781 270413 61824.1 -60508.1 4983.28 -44976.3 67221.6 
204 1 36.9378 47.0924 10.4402 9.13537 295257 411480 -372326 -7440.53 -168299 143789 
224 1 35.3921 49.9764 10.4549 8.59017 -14233.9 77572.8 -538444 -213739 144845 243710 
209 1 40.2273 48.9714 13.062 9.70785 73290 -95031.9 150745 166797 -107088 59249.5 
210 1 38.4576 46.2532 12.9582 9.29403 -203398 126718 -20351.7 126591 61100.2 81841.9 
208 1 40.1495 47.195 10.4282 9.40766 196218 -165577 -287774 428964 199332 147015 
214 1 41.6418 46.2665 13.0666 9.62128 188046 -148246 -43075.6 67870.1 -88100.1 -298036 
147 1 32.104 49.9947 5.20732 7.9825 -60537.9 -99761.4 -4814.32 11034.5 249357 57043.9 
49 1 35.2107 50.0006 0.055897 9.26126 -236798 -464722 -169305 -106249 -95785.7 -92244.8 
212 1 43.3962 47.2813 10.5713 8.76064 -29959.3 -44558.1 49687.7 226374 -107335 44176.5 
213 1 43.2943 49.0237 13.1364 9.13781 -328516 -476983 -586540 56493.5 71708.7 -2891.43 
218 1 44.8971 46.3433 13.0765 9.618 -57042 -152520 -914675 64214.2 -39832.2 195096 
216 1 46.4755 47.3 10.4849 9.22377 -352726 -145041 77508.7 31859.1 58271.5 178022 
217 1 46.5095 49.0576 13.1327 9.58121 161317 -375095 -245624 32484.8 53844 -73394 
226 1 41.7944 50.0123 10.4767 8.67601 -339973 -397740 -37807.6 102605 179560 -191749 
152 1 48.0411 49.8849 5.30132 0.367504 -10535.5 164691 26936.7 -58359.7 -125930 -211549 
151 1 44.8339 49.9647 5.27923 0.0816595 -129591 -2393.74 -79971.4 123874 -76663.4 208853 
61 1 44.9082 49.9647 0.156142 9.28927 112851 143842 131978 89687.4 79356.6 -10433.6 
230 1 43.2893 30.7519 15.6696 110.188 -149716 -242143 -576438 111869 40814.8 150801 
229 1 43.3996 32.5856 18.2012 18.4402 33385.8 -151786 72353.8 -235681 65751.2 131635 
232 1 46.3669 30.725 15.5472 40.1264 375377 91291.8 -315502 -128359 111101 47082.4 
231 1 46.5328 32.3704 18.1345 13.7381 433484 142433 496012 -237962 110628 -11957.1 
233 1 49.7492 32.4052 18.1769 12.8023 20067.4 417904 629077 20086.6 234677 -152844 
3049 1 49.444 30.9147 15.4201 52.948 -128505 -565483 -508423 -195312 68757.2 164430 
234 1 37.171 36.0858 15.5908 31.9522 -140152 -251620 86192 -267968 31894.6 -195029 
236 1 40.2114 36.1595 15.7201 11.4737 -413419 -419998 368284 111194 -108933 31509 
238 1 38.7037 35.1861 18.3557 30.4308 163667 -128605 274001 -30571.1 -33971.1 -151202 
239 1 41.7723 33.4726 15.6361 21.8419 -134448 -74125.1 277758 -152566 -49288.3 53862.4 
243 1 44.822 33.5149 15.6478 7.92869 -98111.3 135341 -377915 -314365 -151315 -236811 
240 1 43.2827 36.236 15.6596 8.37974 -156343 -171332 -131294 299479 -36475.4 -115844 
247 1 47.9599 33.5396 15.604 7.76841 82258.6 -597224 -25471.1 251598 -60128.4 -103288 
244 1 46.4802 36.151 15.6047 8.90978 -103815 -368051 168341 325256 182789 -33176.9 
248 1 49.5789 36.2066 15.7539 9.37084 -241677 -362430 108953 -230299 -260875 -260320 
250 1 48.0544 35.0833 18.3065 8.57152 -72760.3 552356 44302.4 7294 81944.9 -112333 
253 1 35.4193 38.8724 15.6752 25.6621 96731 339737 227908 -141772 -27736.4 35863.3 
256 1 35.4757 40.8332 18.1921 15.3169 -133206 61055.1 378875 -405427 125186 172115 
235 1 37.101 37.7639 18.1247 13.5365 -143654 341068 447977 -318608 71003.2 52440.7 
254 1 37.0386 41.5894 15.6135 8.79982 307545 423315 -186945 -1698.25 65015.1 99284.7 
257 1 38.5823 38.8057 15.664 9.28848 250331 -77744 -243525 12087.7 135513 126066 
237 1 40.1504 37.9678 18.3267 9.05852 -79799.1 117788 -209399 307672 201760 70106.5 
260 1 38.5698 40.5975 18.2688 8.84192 189754 327203 567098 255853 -25707.7 -69756.7 
258 1 40.1695 41.6151 15.5792 9.97047 -284281 -47322.4 -182497 300264 293136 -111097 
261 1 41.7315 38.8665 15.766 9.93388 313163 3140.59 245695 379615 -114344 36134 
265 1 45.0606 38.9862 15.8071 9.57376 114046 130194 -19632.7 -12386.8 214567 -36989.4 
268 1 44.978 40.7658 18.2401 10.0001 264596 -44609 -65446.8 -201150 63814.7 -403416 
262 1 43.3759 41.7811 15.6075 8.90301 23661.5 89452.5 338010 106904 -69863.1 -5232.53 
269 1 48.0911 38.978 15.6354 9.10982 -644756 53200.9 80451 107508 -112161 -220319 
272 1 48.1694 40.8109 18.1544 9.54045 -340259 -147395 -197927 115796 -47920.8 9055.95 
249 1 49.6749 37.9248 18.2523 8.97548 -98182.7 54893.7 -438159 204973 30282.6 -275632 
245 1 46.5696 37.8809 18.3108 8.60698 10572.7 419012 246971 -35903 -186054 120720 
266 1 46.5314 41.7603 15.6649 9.50575 -157451 -132632 -2777.32 -157886 -10225.9 155065 
270 1 49.6946 41.6959 15.67 9.47349 -62021.3 248595 -298424 -17224.3 226993 14014.3 
275 1 32.2942 44.5832 15.6566 22.2191 -176976 96969.1 202501 98123.3 116397 -83357.8 
251 1 33.9157 41.6944 15.6191 23.2315 -214749 -262152 -451448 -121273 124667 181745 
279 1 35.3402 44.3843 15.6454 9.74665 117104 59989.2 -396410 -281246 -285624 -198123 
252 1 33.7797 43.4957 18.2943 15.1041 -226964 68829.6 699525 -168385 187147 74425.8 
283 1 38.6185 44.3617 15.613 8.81152 23683.2 27276.7 108786 -51471.7 6887.68 -265944 
259 1 40.1452 43.3698 18.3373 9.26535 154117 -174214 374785 259439 69145.7 56115.3 
287 1 41.7323 44.3634 15.7203 9.79899 -112364 -107281 432029 181224 -2447.68 -92991.5 
291 1 44.8989 44.5238 15.5529 9.30705 23640.2 -271627 134614 -9939.67 102999 -77919 
263 1 43.3151 43.4573 18.3401 9.25481 71430.9 -390042 -116892 -283390 -243818 7731.83 
295 1 48.1471 44.4542 15.657 10.0196 481681 57178.7 275168 -132793 -81273 -184384 
271 1 49.7195 43.5095 18.2868 9.58188 -20042.1 11158.2 -94986.7 -47161.4 -161989 -183325 
267 1 46.561 43.4236 18.2987 9.0225 -51230.7 -428805 -89419.5 -22737.1 -87893.1 -252826 
273 1 30.7768 47.2461 15.7747 40.0991 -461086 -362106 424071 74036.3 75903.1 -137255 
278 1 32.3065 46.2225 18.3381 14.2931 -410626 100432 -88297 -336865 -122065 -293540 
274 1 30.6146 49.0393 18.3223 35.011 110939 533871 291620 -155764 -14746.3 17882.4 
299 1 32.2089 49.993 15.7188 12.5484 155360 -196179 436659 123613 -39487.7 -301313 
276 1 33.7719 47.3299 15.5493 8.93962 -209913 83172.7 301862 -86666.5 -123466 -250398 
280 1 36.9166 47.0685 15.5602 9.34255 58393 17001.7 -314485 -51447.5 102256 27663.1 
282 1 35.359 46.1968 18.1319 9.59574 5042.58 -443665 411744 77528.8 211784 -177562 
277 1 33.7925 48.9029 18.2787 9.06521 142104 66726.5 -44115.5 141672 -37041.6 -145002 
377 1 38.4801 49.837 20.8717 9.47111 -434023 -252539 21759.5 -177983 110964 7367.19 
284 1 40.1007 47.1204 15.694 9.44209 226938 176256 56825.6 1564.1 163077 129657 
286 1 38.5528 46.1674 18.2056 9.56114 -398758 -70278.9 180398 -176691 174933 17752.1 
290 1 41.6171 46.1781 18.2937 8.91774 -83058.5 270792 128828 42238.9 -26707.9 -40913.4 
288 1 43.3391 47.1965 15.5369 10.2559 -104459 -348909 -181528 383078 93328.8 102450 
294 1 44.9193 46.1617 18.3186 9.09069 234298 259192 356597 -25909.8 54933.6 193368 
289 1 43.333 48.9441 18.3168 9.61201 325660 493578 502407 -33809.3 -101754 49726.5 
302 1 41.8247 49.9107 15.7204 9.00775 373973 42182.9 -2483.1 71987.5 62521.8 -201785 
300 1 35.4189 49.9195 15.6648 9.08701 -71340.8 -345858 -144025 -252628 17677 -173684 
379 1 44.8842 49.8995 20.9751 9.02225 -268561 352408 -17947.3 -72567.8 -30634.9 210027 
292 1 46.4629 47.2302 15.6181 9.69133 -81191.5 -49102.7 -302388 39864.2 -150622 83616.1 
296 1 49.7456 47.2527 15.6088 9.75525 229656 332831 6297.82 -175733 -48832.5 63948.1 
298 1 48.0501 46.2873 18.1739 9.86464 170738 343627 313772 -66178.8 -19618 -153773 
293 1 46.4747 49.0915 18.2096 9.55964 -119727 -90845.9 366629 122571 -191524 -86601.3 
319 1 44.9704 33.1966 20.8108 11.9912 298400 185554 432363 9818.66 -235176 -211372 
315 1 41.8622 33.3189 20.8462 31.9679 36575.8 -100458 353224 -165355 158255 -197386 
308 1 49.76 30.7294 20.8795 42.6107 -54431 -506664 -361353 115977 66905.9 -231727 
306 1 46.6683 30.6342 20.7349 63.4867 -108425 -469094 -255711 13964.2 -28041.3 17790.9 
310 1 37.0458 36.0903 20.865 36.7808 -25317.8 424.907 25529.4 -49562.2 48065.2 -188783 
312 1 40.1841 36.141 20.8778 11.9354 165527 -317464 -38611.1 178150 -116236 46691.8 
246 1 44.9868 35.1979 18.2401 9.05185 -398970 163159 47284.1 -243696 -21672.9 -317923 
242 1 41.8712 35.2767 18.2491 11.1101 -159070 25569.8 -2372.25 -274834 -180076 -89862.9 
316 1 43.3268 36.027 20.8212 9.62086 63672.9 303621 -235520 -77678.4 -225374 -113652 
323 1 48.1209 33.2986 20.8412 9.7022 154046 -461586 -235102 130831 -145594 50033.9 
324 1 49.6507 36.1363 20.8618 9.13805 -224548 10602.5 -303873 -16233.5 106187 130631 
320 1 46.4912 36.0222 20.8593 9.52317 41475.6 301061 -505122 234165 23097.1 94692.5 
329 1 35.5083 38.9726 20.7511 30.4047 348300 81335.9 371889 -198188 -98800.4 25030.2 
330 1 37.0661 41.6083 20.9292 8.29851 25904.4 -27527.5 335274 -356986 -54039.1 -42421.2 
327 1 33.9052 41.6492 20.815 33.6539 36688.5 -414133 -190044 63721 99928.7 -195455 
333 1 38.7002 38.7616 20.9179 9.16454 327820 237446 -195815 409150 203887 128914 
334 1 40.1179 41.6257 20.9579 9.28287 -350163 -95934.6 -297755 126732 63362.5 -96019.4 
264 1 41.7496 40.8068 18.2754 9.73043 121929 -199921 493255 57385.4 -97036.2 -144689 
241 1 43.3953 37.9416 18.2876 9.32386 154426 152224 -238210 -168538 -99832.5 3773.54 
337 1 41.8297 38.856 20.9115 9.16733 -335136 352339 -293556 -10185.7 -69447.5 8035.37 
341 1 44.9354 38.7901 20.9258 10.0759 -112959 241487 28945.7 -5434.44 -57445 -192499 
338 1 43.3121 41.6511 20.8781 9.3084 -106230 170431 -28951.1 -120317 39013.7 109710 
345 1 48.1188 38.8797 20.9019 9.4381 -309552 181152 -5531.97 -20499 -98309 -208678 
351 1 32.2669 44.3765 20.877 25.1131 -605323 -266294 -422358 -76500 -32666.5 103856 
255 1 36.8878 43.4787 18.1884 9.00938 382435 -222158 594473 -179115 -198009 8978.36 
355 1 35.3227 44.3923 20.9881 9.63064 71501.6 225996 487651 -51016 148266 21600.3 
359 1 38.4941 44.2803 20.9094 9.4932 86381.8 -325790 320021 105714 66943.2 90689.1 
363 1 41.7113 44.3962 20.913 9.15448 -52233 -343513 -293733 74269.3 32106.7 -127962 
367 1 44.8557 44.4227 20.8103 9.29956 -223043 -570845 -590337 -39449.8 -188886 -22495.4 
346 1 49.6389 41.6124 20.8431 9.08303 180093 -413779 62730.7 96824.1 -44683 12718.6 
342 1 46.4407 41.6384 20.9215 9.41137 128074 104606 -40801.6 -91540.7 -128572 -28773.3 
371 1 48.0326 44.3078 20.8239 8.97473 -65373.6 -147827 -87694.7 175794 -134106 -314385 
349 1 30.8037 47.2043 20.8255 30.6771 -605478 -98627.5 21039.4 -26126.7 142342 -139682 
375 1 32.3206 49.8718 20.8567 12.7002 -86455.4 63671 -162348 182392 96516.9 -32078.6 
281 1 36.8707 48.8583 18.1878 8.59007 -66736.2 300614 41014.3 -24904.8 75151.2 34491.9 
352 1 33.775 47.0432 20.8504 9.55659 -131300 -145270 118987 39984.6 -317946 -97264.8 
356 1 37.0352 47.0913 20.9032 9.21819 268040 -323375 668386 665.167 102059 10855.1 
376 1 35.4336 49.7842 20.7647 9.70732 -160581 240285 467275 120188 -13958.4 -143473 
285 1 40.0394 48.9602 18.3403 9.50915 430360 210578 220684 -126467 48115.4 -42218.2 
360 1 40.1743 47.118 20.8855 9.33151 -172921 5713.95 -69369 103879 47696.6 127208 
378 1 41.7002 49.868 20.886 9.35143 -153708 -160251 -21512.2 57914.8 139508 2145.21 
303 1 44.9782 49.9619 15.6301 8.7865 -297659 -137299 -396226 62845.8 -18049.1 23243.8 
420 1 47.999 49.7303 26.1035 8.29008 127557 -45628.7 270622 -48581.2 -207279 -23947.4 
364 1 43.3155 47.0987 20.9556 10.208 -263684 -330305 -466677 189356 -73872.2 234321 
297 1 49.6576 49.0384 18.2262 9.44421 164097 -252388 440446 21857.2 -72470.7 28080.3 
368 1 46.5386 47.0668 20.9339 10.1681 59124.6 139310 -66324.7 -80091 -97461.1 -4196.12 
372 1 49.7144 47.196 20.8073 9.2801 -93070.5 102160 -187381 -32179.6 135084 -171155 
305 1 43.3302 32.3151 23.5988 21.5004 199589 120148 747141 -268489 -89699.5 -169294 
381 1 43.5222 30.5925 26.1578 105.719 393114 74640.2 -417394 5817.54 -30311.6 100423 
3195 1 49.8879 30.6396 26.061 52.9183 400060 241949 167183 -139360 24782.9 -74486.1 
309 1 49.666 32.4188 23.3579 13.234 -57400.2 -63057.3 221832 317941 -160292 -301016 
307 1 46.5029 32.2115 23.4574 12.8573 456327 606432 451935 8.50797 -83199 87638 
382 1 46.7047 30.7681 26.1331 41.4051 839561 -469188 -637993 46736.9 2723.76 -8711.14 
383 1 37.01 36.0382 26.1108 36.3435 -37992.7 -325745 492992 -150282 36214.2 -189281 
314 1 38.6438 35.2551 23.4692 29.6009 -320168 -95288.6 253023 36491.7 -154844 12324.6 
384 1 40.1424 36.0191 26.0681 12.3836 368645 -10873.2 234284 353718 -215417 -228475 