ITEM: TIMESTEP
90000
ITEM: NUMBER OF ATOMS
5538
ITEM: BOX BOUNDS pp pp pp
0.0372549 99.9627
0.137726 99.8623
-1.11595 101.116
ITEM: ATOMS id type x y z c_csym c_2[1] c_2[2] c_2[3] c_2[4] c_2[5] c_2[6] 
11 1 40.0783 31.1802 -0.411433 76.5657 -334245 91930.3 98010.5 -89528.7 -30705.2 -208842 
87 1 41.5419 31.7345 2.18815 50.8442 496988 -138677 -548078 192770 98891 -38546.1 
1 1 43.1664 30.8133 -0.220781 37.3236 -135626 -24209.7 163270 -102116 259370 40464.3 
15 1 44.8286 31.7012 2.55505 15.3282 319479 -488987 247376 -275579 369985 -79620.5 
3 1 46.2901 30.7418 -0.0607591 33.596 49039 -356601 403989 1190.87 -200964 -74146.3 
19 1 47.9139 31.5413 2.56432 15.7575 535021 405952 579718 -6308.13 -97838.1 52934.6 
5 1 49.5266 30.6406 -0.0879073 36.3255 404611 204547 306521 12293.6 7918.49 -66659 
1375 1 36.8122 36.3389 -0.276524 23.6132 -277511 203301 -275872 161440 118775 255746 
10 1 38.4883 33.7374 -0.139725 31.5295 93576.6 -649825 30132.9 -277062 50632.6 -128100 
6 1 38.3781 37.0454 2.58983 13.1632 487733 332757 733627 125339 78952.4 -4084.97 
8 1 40.0829 34.4879 2.3965 21.5536 -159580 -171770 132627 -72845.4 -119983 248100 
9 1 39.9093 36.3153 -0.159046 8.37221 288624 -238782 116739 -435443 -87816.2 167966 
14 1 41.7767 33.6771 -0.194408 8.74355 12901.1 298066 9230.39 -573655 -198055 146128 
33 1 41.6275 37.1181 2.44661 9.32325 426426 -513775 184607 104008 -78762.8 288742 
18 1 44.8121 33.4157 -0.148047 8.41331 -501882 65965.2 335396 180451 -164573 -282624 
12 1 43.2076 34.4755 2.36939 9.15606 -394038 405626 -258012 160272 -97508.4 -80327.2 
13 1 43.3053 36.2962 -0.247925 9.68602 -79700.7 -414519 193447 -323787 -60224 -82387 
37 1 44.8009 37.1622 2.41072 8.81962 -101513 -107757 265264 312855 -15199 -313026 
22 1 47.9289 33.3756 -0.0913887 9.71924 508595 638984 804517 -88118.3 -122928 11784.8 
16 1 46.226 34.3184 2.54284 8.82344 54954.6 -57506.1 26008.2 -337231 97750.7 -105055 
17 1 46.3705 36.1515 -0.103129 9.61368 39167.7 225650 363494 49726.3 -64953.7 96354 
41 1 47.9508 37.0821 2.46022 9.16604 237498 -109604 153030 139.933 67495.2 -166351 
21 1 49.6446 36.0497 -0.034815 9.76685 354715 258899 160741 72244.9 -101149 115490 
20 1 49.5978 34.3422 2.55272 9.12631 775343 571786 -304808 -34997.6 -128999 196535 
25 1 36.8907 39.9785 2.45739 14.5223 -208717 42077.4 732844 170628 -41919.1 -332405 
1396 1 35.4753 39.1596 -0.243656 19.333 -398544 -15750 -164662 -257335 341125 253456 
7 1 38.5172 39.1107 -0.150188 8.56594 -560769 31691.7 -172805 134785 -287852 -230495 
29 1 39.9532 39.8281 2.40757 9.00322 168683 185248 -95934.2 395461 26131.7 -364183 
36 1 41.6293 38.9303 -0.0241456 10.3011 -266279 -11740.2 -209745 -129212 -111481 -110193 
34 1 43.2965 39.7952 2.42408 8.9958 94040.3 -414356 -200895 -98307.5 -110460 -11469.3 
40 1 44.8184 38.963 -0.242731 9.58607 -14770.4 -628182 -150456 160613 316352 47812.4 
42 1 49.5846 39.7441 2.44415 9.55463 79593 190609 97715.1 -147586 -28308.3 73501.5 
38 1 46.4555 39.8345 2.61026 10.338 -204617 -769682 167378 404174 -70039.3 -116284 
44 1 48.0912 38.818 -0.235743 9.69426 111914 58146.5 140993 -119377 -401250 188430 
43 1 49.536 41.5642 -0.194808 8.7724 101707 151009 91288.1 -72007.9 -97838.6 76509.9 
1418 1 32.317 44.5409 -0.244113 21.8396 -86157.7 -65464 -607801 -363625 16717.3 -233237 
1392 1 33.8505 41.8274 -0.224668 19.9827 -468789 -195315 -315544 -243897 53378.1 175899 
28 1 36.952 41.8002 -0.269757 8.84131 -248811 -668402 459867 12331.2 154691 -71030.1 
47 1 33.6956 45.2209 2.50197 13.4367 606326 714851 536104 57563.7 -139456 -268445 
23 1 35.3631 42.5442 2.42311 14.4499 608398 -98058.7 776227 330324 -212058 32937.2 
24 1 35.4131 44.4452 -0.104192 8.83855 196463 -375334 323104 -147961 8960.78 -139296 
51 1 36.9253 45.3793 2.45253 8.85736 370266 470867 -167896 17367.7 -84260.4 132505 
32 1 40.0591 41.7353 -0.257722 8.91975 -69819.3 -399687 -17383.8 -44222.3 33012.4 -57240.9 
26 1 38.6336 42.5593 2.42925 8.59194 8054.46 -485740 38451 98419.2 -124796 120739 
27 1 38.6055 44.4474 -0.133108 9.54304 -205221 -324928 -463201 115736 -262914 -21893 
55 1 40.0555 45.3131 2.33343 9.21715 64218.1 -396434 84465.4 -383560 -355507 -30751.8 
30 1 41.6753 42.6165 2.41586 9.80562 -142131 242670 367888 -20351.8 37023 27695.6 
35 1 43.3159 41.5694 -0.113482 9.76279 80979.1 -582078 52555.6 152924 61769.8 -78422.2 
31 1 41.8252 44.3448 -0.294597 9.4549 -299321 102462 101384 -266725 -177874 92778.7 
59 1 43.3022 45.2378 2.39152 8.85465 244074 -96393.5 283087 -274010 -23235.1 178277 
63 1 44.9403 42.4428 2.48956 8.57949 -375574 -239524 -97950.4 169946 113383 -63192.6 
66 1 44.8257 44.3002 -0.219297 8.9303 -785888 -176654 -295273 200024 -8783.04 -285685 
39 1 46.4826 41.7369 -0.0330965 9.65151 -425405 2916.02 -261548 -2981.76 55146.3 -197852 
67 1 48.0612 42.5965 2.47541 8.90324 -550129 40144.1 11341.4 -75004.6 -194695 -153241 
64 1 46.4696 45.2751 2.39987 9.05054 48956 -13417.4 85558.9 -28967.2 133787 145877 
70 1 47.9992 44.4499 -0.163723 9.16655 257471 -278486 -135466 -61527.3 115993 -208432 
68 1 49.652 45.3082 2.50454 10.099 -167167 -5423.38 464804 67189.6 32381.7 36519.5 
45 1 32.1929 48.1752 2.48298 19.0883 -95311.7 321473 719878 36350.7 23697.9 16708.7 
1414 1 30.7445 47.3192 -0.419683 52.7601 -241829 26488.2 -206902 -344415 257672 -71437.6 
61 1 44.7727 49.9561 -0.135201 9.56879 149830 277820 138166 -43779.9 27238 -28264.2 
50 1 33.7965 47.226 -0.187771 9.74358 80908.3 53125.4 577004 -414957 23390.3 -41762.7 
48 1 35.3163 48.1479 2.46831 9.21255 120882 427741 93516.4 156146 36445.8 -42388.1 
54 1 36.9598 47.1196 -0.127168 8.77773 106270 -10695.7 164499 6102.45 -38745.1 5630.09 
52 1 38.4083 48.1601 2.45722 8.38222 -47944.8 191378 278966 -29739.5 17750.1 -21138.4 
58 1 40.112 47.2457 -0.186966 9.00794 214014 196300 94122.6 -187839 -79290.9 -64041.8 
56 1 41.624 47.9396 2.45403 9.01202 -88694.5 477543 -115594 -295505 109843 -71983.3 
227 1 44.9041 49.9053 10.3127 9.23409 -53178.8 -62288.8 -95785.7 134560 -238491 -195236 
62 1 43.2979 47.111 -0.256769 10.0037 38964.2 359488 198788 -223804 -122680 11286.5 
60 1 44.7036 48.0119 2.43888 9.00417 188341 287020 68138.3 -112931 23258.1 -103710 
69 1 49.6701 47.118 -0.151122 9.46567 -177382 26948.3 583023 -246950 1321.07 -3599.67 
65 1 46.4062 47.1336 -0.117352 9.79056 55705.4 173546 233358 61953 -37186.2 7472.4 
76 1 47.945 48.0199 2.5144 9.55191 290290 79244 265887 -95927.6 -141488 22329.7 
77 1 43.4303 32.562 7.93797 37.1898 -334089 128160 -255405 -98853.2 -351447 -222071 
91 1 44.7417 33.4495 5.07453 17.0369 153698 -245802 93648.4 11047.4 145107 -79186.5 
81 1 49.5572 32.4022 7.69083 8.22134 94351.6 130093 138763 -34328.7 -130910 49725.4 
4 1 49.5503 30.6911 5.14919 26.1806 -662565 -611893 -102076 -70571.6 -6974.31 -160647 
2 1 46.4195 30.7905 5.21264 33.0309 -367337 -428695 -467338 -155001 -128473 -71952.7 
78 1 47.9159 29.7992 7.61467 46.498 -349207 -260285 -440246 -11321.3 -1317.65 53131.4 
79 1 46.4764 32.5815 7.64139 12.2723 -472923 -160931 -21537.5 -449328 381672 -289727 
82 1 36.9852 36.3121 5.31804 51.401 -354944 -402371 -343089 118127 96786.7 -78621.2 
84 1 40.0545 36.2923 5.13951 15.7829 -633.695 -292100 305216 124371 -72619.1 -122912 
86 1 38.5845 35.3815 7.81995 35.3567 -555901 -525201 26566.3 -273244 -94675.5 -136478 
90 1 41.649 35.1616 7.871 13.8934 -219867 22719.9 -41356.8 -225410 120594 -249725 
88 1 43.2089 36.0891 5.0987 8.63165 106793 -135541 398303 132065 -217484 -258329 
94 1 44.8475 35.3134 7.68037 8.97208 -510817 -221685 -42400.8 424426 -184515 24813.8 
95 1 48.0123 33.3701 5.13249 0.219214 62268.3 -436951 -328986 -310552 250781 51606 
92 1 46.3937 36.0885 5.04381 0.199983 -18570 62903.7 -29556 145859 143538 -81332.6 
96 1 49.5519 36.0355 5.13952 0.293973 202022 -58997.6 238991 -83258.5 -45270.6 -212805 
98 1 47.9241 35.216 7.67084 8.75569 -98777.4 106212 138514 -97693.6 154650 35042.3 
83 1 36.9211 37.9872 7.88617 15.4271 -139179 -339690 278776 -163811 -294467 -191043 
101 1 35.5309 38.9494 5.2704 39.4736 -424872 -488316 -261314 -105467 829.399 -186797 
104 1 35.2744 40.6167 7.81245 14.2744 -27437.4 253546 -202811 182226 -479957 54119.1 
102 1 36.9225 41.6197 5.12293 0.208219 -398503 -400407 289355 32503.9 -186393 -286910 
85 1 40.0558 37.9297 7.71128 8.90071 236383 -568354 78135.8 -369968 6420.02 -44961.1 
105 1 38.5074 38.9711 5.13114 0.230919 -432898 -296449 236016 161266 -51453.1 -268883 
108 1 38.4317 40.619 7.71036 8.37322 147454 -58102.8 29894.7 -103117 47106.2 -145442 
109 1 41.6824 38.9451 5.06946 0.259163 76998 128814 319261 -206452 79254.3 -322114 
112 1 41.5267 40.6384 7.59829 8.41689 72257.3 -145068 75868.2 35510.6 192101 -149193 
89 1 43.2321 37.8189 7.71385 8.81183 437644 93617 203079 347914 139114 56994.8 
113 1 44.8159 38.7872 5.09449 0.329184 -60003.2 265612 69228.1 10537.2 40118 42010.2 
116 1 44.7877 40.7054 7.68024 9.25278 422249 301795 480181 176047 11928.9 241399 
97 1 49.6233 37.9893 7.73075 9.8694 -117118 -34727.5 163921 23324 34722.8 152867 
93 1 46.5379 38.0321 7.64974 9.429 -98908.8 -256636 113622 -41683.4 185817 152770 
117 1 48.0253 38.8318 5.07903 0.15105 -475172 136955 -409930 14210 13881.4 136021 
120 1 47.9757 40.7057 7.71213 9.17819 -331165 -416870 333714 -163568 -189342 98133.9 
118 1 49.6082 41.6407 5.05974 0.0783315 -49057.6 41302.5 259596 156278 -99572.3 1252.07 
123 1 32.3029 44.441 5.31243 42.6688 16583.2 10616.5 45872.2 -276878 87187.1 -148582 
99 1 33.9032 41.7281 5.41525 39.3576 -303929 16500.1 -446968 6964.82 -261914 -16618.4 
100 1 33.9117 43.5035 7.8866 14.1525 -297727 59700.6 -293198 -296847 29348.1 -231012 
103 1 36.9234 43.4461 7.69356 9.49481 -330237 774586 359918 221265 -46283.6 34277.1 
127 1 35.4137 44.418 5.0997 0.299535 -80267.9 230095 406223 38827.2 -171425 20763.4 
106 1 40.0261 41.6845 5.02095 0.210124 -244749 -130497 -209308 148766 -220182 -19979.6 
107 1 39.9955 43.3234 7.67694 8.78692 -234136 430946 575535 172375 7923.17 -68862.2 
131 1 38.4685 44.3773 5.01729 0.183857 -66441.7 151967 414122 265472 -64130.9 -43009.9 
135 1 41.6773 44.4708 5.00265 0.352742 -125866 -380774 260953 41445.3 -75563.5 -222806 
110 1 43.2115 41.622 5.03359 0.0848913 252406 125408 51795.3 -222898 54982 -54895.2 
111 1 43.1332 43.3925 7.61912 8.45716 366652 203423 578076 282654 161322 -84459 
139 1 44.8231 44.4616 5.05027 0.326244 -77513.9 161418 311032 1288.98 -98279.4 36334 
114 1 46.4277 41.5588 5.07328 0.1579 209035 119132 -394724 25457 -143698 -233258 
115 1 46.4276 43.4679 7.66341 9.13607 432279 537597 361998 61762.6 87645.4 120057 
119 1 49.5857 43.5189 7.63812 9.53244 27298.4 -187005 -144685 -215404 9514.42 194610 
143 1 47.9669 44.3729 5.09312 0.149043 114782 111591 7590.86 171703 -6787.92 75736.7 
121 1 30.8445 47.2568 5.16378 52.2993 -717718 -111142 -518726 17451.6 -69620.7 206111 
126 1 32.1491 46.3257 7.76029 16.1389 -10694.5 -135290 -36922.3 -195861 -397726 221046 
122 1 30.8605 49.0356 7.71303 26.7586 -539292 -160546 291020 6526.59 -32969.2 -28439.6 
225 1 38.556 49.9137 10.3343 9.44828 69383.7 -91250.9 529007 -37900.1 -15679.3 7501.75 
125 1 33.8288 48.9715 7.73208 9.09333 -329652 -306315 408715 -148662 -72527.3 300528 
124 1 33.7671 47.1123 5.00134 0.762612 -293995 278961 314825 56474.2 -98743 -30127.5 
128 1 36.9744 47.2037 5.10294 0.194734 348376 11041 28277.8 33557.8 -10359 -23915.6 
129 1 36.9806 49.0083 7.63876 9.89134 1525.36 -363487 -30809.2 256003 141740 -29635.1 
130 1 35.2959 46.2557 7.69401 9.30068 501774 198139 364231 12757.2 2605.23 -45126.5 
53 1 38.5204 49.9872 -0.157734 9.5482 -143475 256608 335238 197324 -298035 159986 
151 1 44.8143 49.8307 5.01671 0.433153 -226081 223135 397765 9924.93 127201 -82731.3 
132 1 40.211 47.1537 5.01133 0.399105 -174962 128419 35921.3 177201 190582 174351 
133 1 40.23 49.0523 7.62438 9.17604 107094 393772 407786 -50360 -298309 81565.5 
134 1 38.5034 46.2381 7.66239 10.0477 242642 464472 43905.8 279455 -57893.8 2564.52 
138 1 41.7013 46.2056 7.65534 9.16884 111304 368088 51968.5 137765 54703.8 185682 
147 1 32.3568 49.9617 5.09977 16.3102 -109811 217613 133505 77999.7 -10016.1 -66415.8 
136 1 43.2438 47.1013 5.09593 0.205974 -846347 -527740 169091 -172285 167618 282416 
137 1 43.2889 49.0672 7.78296 8.97306 -504758 344716 226874 109479 129550 -148095 
142 1 44.8504 46.2574 7.74707 9.61505 -95887.6 483960 157211 14420.7 131028 40110.9 
226 1 41.7765 49.821 10.3281 8.78544 25949.2 157761 148492 -56386 148229 -190662 
140 1 46.3978 47.1457 5.08957 0.130792 -126919 -119838 103382 20057.6 -916.732 148741 
141 1 46.4923 49.0181 7.67973 9.64755 23524.1 -69918.4 516114 363647 48054.5 -18130.4 
144 1 49.5811 47.1907 5.07948 0.165734 198413 538243 51769.7 -2958.7 -34890.7 100954 
145 1 49.6213 49.2564 7.59029 9.13453 -81725.5 250539 52502.4 -113241 59869.7 -716.754 
146 1 47.9449 46.3441 7.67899 9.20968 -137339 151031 -185300 154415 -202478 -12201 
153 1 43.3796 32.5436 12.964 20.483 333668 148148 365907 -230277 -186402 70178.2 
156 1 49.7577 30.6536 10.1471 22.1649 35309.5 -207961 -470058 88930.8 376216 167593 
157 1 49.7258 32.4459 12.8031 13.4597 27531.2 476618 75531.5 51130.9 35706.8 308478 
155 1 46.5803 32.5056 12.9364 13.9731 289202 173338 166368 -205500 -62538.6 22204.8 
154 1 46.6902 30.7778 10.2294 34.2814 118518 -95092.4 119321 -86403.4 25605.7 -38431.9 
158 1 36.9885 36.1601 10.4777 37.9178 151812 135275 353402 -140196 -37891.5 7923.66 
160 1 40.1348 36.2258 10.3297 11.5708 232019 52937.6 -260205 -143227 -87359 4895.21 
162 1 38.7082 35.3167 12.9836 30.3437 -180101 -222747 480568 -503993 -16512.1 42360.2 
166 1 41.7771 35.361 12.89 11.9566 -373651 303818 13594.2 -313078 -6051.08 -97664.4 
163 1 41.7971 33.4668 10.4328 31.6942 320753 -70852 -317354 6064.34 -44394 54468.5 
167 1 45.0358 33.5408 10.2904 10.3849 307086 -129811 125926 -159807 -203765 -288079 
164 1 43.3538 36.1766 10.344 8.92824 26064.7 224587 -206929 348962 47369.7 231347 
170 1 44.9538 35.2732 12.8983 9.02378 -95385.3 194380 -403619 48856.4 174864 40563.6 
171 1 48.1116 33.4649 10.3154 8.81764 -292657 391651 184978 -189787 43462.4 131350 
168 1 46.4548 36.2397 10.2749 8.61662 -23623.8 -172679 -226550 12893.1 76255.5 -276400 
174 1 48.0861 35.2607 12.9046 9.3018 346256 129901 -2934.99 77350.9 51592.7 172042 
172 1 49.697 36.2261 10.3204 9.0995 180836 225797 -98669.2 128808 147596 -106793 
177 1 35.3647 38.9728 10.5069 24.4282 -159814 -109708 -278212 -273654 -25681 -24922.6 
159 1 36.9033 37.9934 13.0315 15.2814 -28286.9 169816 338354 -212762 36991.7 75336.8 
180 1 35.4449 40.7503 13.0358 14.5927 -284352 161087 369921 -350988 -29375.2 -256549 
175 1 33.8072 41.8116 10.4178 23.1857 -58645.8 -66800.6 -75143.9 -168688 84565.1 131606 
161 1 40.0294 37.9792 13.0121 8.30459 364113 -633729 87049 -61208.5 19683.7 -40007.7 
184 1 38.4832 40.6582 13.0289 8.56286 -402922 179450 246883 301386 25130.1 -21795.6 
181 1 38.4531 38.9228 10.3948 9.06647 194142 -135929 83169.5 -70809.8 -253711 -93417.3 
185 1 41.7123 38.8864 10.3386 8.82462 502325 -62633.9 658159 103480 -38579.9 13823 
182 1 40.0447 41.5084 10.3138 9.37681 -45475.4 58935.3 441980 70970.1 -10280.3 41473.2 
188 1 41.5807 40.6978 13.0522 9.07205 254983 339098 122009 331.963 -153292 48914.8 
192 1 44.8996 40.7974 12.8538 9.85695 224504 46846.6 -219047 -171590 157166 76646.2 
165 1 43.3731 38.036 12.9171 10.0318 521697 105176 282179 -20309.4 -76817.3 -67058.8 
189 1 45.0001 38.985 10.2495 9.00864 400492 162633 109152 189867 -72928.5 101092 
186 1 43.1898 41.6619 10.3778 10.3623 278994 185663 438613 113777 -94554.2 -60230.5 
169 1 46.5597 37.9257 12.8176 8.54447 -92894.4 161881 -81623.4 5745.58 69504.5 1717.27 
196 1 48.1265 40.8409 12.8861 9.70843 117497 -211640 -185518 109449 -275367 -115046 
173 1 49.7108 38.0059 12.8607 9.10727 -849552 208249 -89720.1 198421 -107037 -4018.09 
193 1 48.1306 39.0152 10.3766 8.85764 -4551.5 226536 -225873 -53095.8 192969 155088 
194 1 49.6753 41.7743 10.1959 8.99698 -251937 -36210.6 -306895 110357 69510.2 -150002 
199 1 32.183 44.5497 10.2312 30.2324 -148274 75802.2 -85254 -155818 172661 90856.9 
178 1 36.8909 41.6012 10.3457 9.71905 5614.91 -38463.4 335831 -92607.2 20287.2 -32716.2 
176 1 33.7487 43.6008 13.0006 15.8168 115904 134388 364263 -550726 98921.1 -120406 
203 1 35.2943 44.5163 10.4366 9.0566 112717 270085 -78992.5 -273447 -189773 -128516 
179 1 36.9198 43.4796 12.9608 9.69566 308664 454938 74771 -78455 -164306 107534 
183 1 40.1008 43.529 12.9055 9.83825 156922 632020 345802 103899 -87870.5 -939.898 
207 1 38.4459 44.3561 10.3386 9.64224 356585 322934 367506 122473 -60573.5 126224 
211 1 41.6784 44.4655 10.2441 9.14924 416150 154931 354603 88204.2 94404.8 171966 
187 1 43.2893 43.5024 12.9184 9.95956 406399 447714 20236.3 -10134.3 170523 13210.1 
215 1 44.9131 44.5141 10.426 9.68241 213563 -91981.4 428315 371406 191491 235652 
190 1 46.4708 41.8087 10.3997 9.10023 237739 -76478.1 -172634 -20130.9 124131 58655.1 
191 1 46.5774 43.4803 12.9346 8.51853 -255954 -445415 -472703 48246.9 -68001.1 -226616 
195 1 49.6464 43.5506 12.7947 9.79648 -472312 -233146 265301 152107 28159.9 35863.7 
219 1 48.0926 44.5321 10.289 8.73587 25738 -201565 42904.9 -81798.6 -91126.2 55085.9 
1503 1 47.9741 49.8525 -0.298807 9.88022 136518 159746 145308 -183535 -234405 23012.2 
202 1 31.9556 46.2879 12.9633 16.5113 355136 848480 1.04558e+06 -227751 21843.7 22786.3 
198 1 30.6897 49.194 12.9599 27.0706 -574585 155534 489497 -219745 12018.1 -151300 
197 1 30.5001 47.3805 10.3616 36.4769 130934 445496 322343 -384.48 -76282.1 101934 
206 1 35.1627 46.3016 12.9851 8.88335 785980 176823 241212 -28983.1 -164390 -84257.7 
201 1 33.6822 49.0757 12.9336 8.81696 165669 258573 208058 -29884 -72107.3 -6358.26 
200 1 33.6603 47.2915 10.3363 9.20855 752376 128008 86390.5 -129231 -184300 -17085.1 
205 1 36.9517 49.0282 12.9445 9.36374 -197912 -254441 9247.6 332526 -189521 83142.9 
204 1 36.9646 47.1357 10.187 9.77664 281077 -267355 299590 120521 50152.7 2605.8 
152 1 48.013 49.9917 5.00553 0.268302 -426916 -498122 -215445 28178.3 -95001.3 212557 
209 1 40.0502 49.0551 13.0057 8.84528 -173577 -233708 157942 131614 -14468.3 -105390 
208 1 40.1124 47.1922 10.3327 9.49264 -59918 -156636 167753 149716 -245881 177442 
210 1 38.4153 46.3759 12.9716 8.64963 206542 -100007 347116 172659 166125 135411 
214 1 41.5542 46.4108 12.9114 8.6218 317732 -24592.1 43846 -47308.3 -131458 185007 
57 1 41.5934 50.0527 -0.102889 9.67048 -241581 376006 36872.3 -204916 -23332.2 -89048.5 
220 1 49.6525 47.2414 10.0927 10.5016 45775.9 -84202.1 513830 10367 -115739 -124692 
213 1 43.332 48.9532 12.9856 9.37908 -433154 -161376 -49073 -284614 -157967 188948 
218 1 44.978 46.2712 13.0448 9.21514 50852 -389163 -327117 -229905 54606.8 158539 
212 1 43.3274 47.1237 10.371 9.06822 -95166 -477754 372221 236890 214257 -27888.7 
216 1 46.4819 47.2361 10.3304 8.69284 -243569 -218526 -189979 236240 -39688.6 -169261 
222 1 48.0677 46.2809 12.8738 10.0109 -130696 -56299.2 392691 -5148.15 -143657 -76881.5 
221 1 49.6429 49.0086 12.8603 9.42181 31486.8 76262.5 434918 166051 -129640 125253 
217 1 46.3495 48.9588 12.8925 8.8667 -291013 -310978 205461 -71880.3 -36658.7 -86377.5 
148 1 35.4088 49.9653 5.04461 0.192078 290354 205908 -240177 89099.5 176461 -241163 
49 1 35.2987 49.8957 -0.183244 9.11304 334906 268386 270215 -235011 43616.6 91771.1 
149 1 38.6034 49.9665 5.11902 0.358459 149208 229958 27642.2 -167207 3256.83 13812.7 
224 1 35.4194 49.8049 10.3144 8.4221 125501 -604958 -55502.6 -221839 -69988.1 -81760.1 
46 1 32.2249 49.9606 -0.336187 16.6645 -508189 91788.4 -178092 -148111 94146.1 -80728.5 
150 1 41.7917 49.9263 4.92903 0.737607 -262695 436077 517373 -165474 71945.2 2475.21 
230 1 43.396 30.944 15.5251 96.6488 -197709 -649903 -871709 166298 -17854.1 8779.46 
229 1 43.4529 32.6135 18.0623 19.0394 77770.9 43947.1 520829 -317485 -155312 -10146.8 
232 1 46.5046 30.7921 15.4606 39.3117 148783 -252310 -429567 95752.4 24471.6 31459.1 
231 1 46.5806 32.4539 18.079 13.3113 265608 448164 642447 -14061.1 146718 -7690.28 
233 1 49.7646 32.5276 18.1786 14.7194 -188554 389220 968294 36540.6 146723 -167262 
3049 1 49.5628 30.8402 15.4923 59.6591 -127049 -233944 -240578 145220 -3520.1 23889.5 
234 1 37.1911 36.2893 15.6389 31.7762 -280820 -230026 99556.1 93389.4 -263214 165735 
236 1 40.2458 36.2226 15.593 11.8856 -139534 -447475 119440 43153.2 -22429.2 135528 
238 1 38.6545 35.4021 18.1444 31.2875 -63315.4 -50177.8 -8340.24 -116171 -141881 89435 
243 1 45.035 33.527 15.4627 9.07667 376594 -354729 267900 176876 46826.1 47331.9 
239 1 41.8266 33.5351 15.537 21.9856 124231 -518655 577241 -58333.7 -11555.2 -14401.8 
240 1 43.4218 36.1301 15.4535 9.11679 107315 101128 369950 143285 73287.1 -36877.6 
246 1 45.0185 35.2722 18.2204 9.08908 190590 342003 -61921.7 -79844.3 36276.8 421735 
247 1 48.181 33.5275 15.4209 9.03492 346353 150392 336854 230974 -105657 157956 
244 1 46.582 36.2832 15.5933 8.78357 30201.8 -180105 410846 116156 38304 -2639.89 
248 1 49.7643 36.3052 15.5208 8.52285 15903.3 -237025 178988 -146684 -66211.3 -114876 
250 1 48.1312 35.2985 18.2227 9.8802 147730 576789 666894 -35935.9 -209201 193536 
253 1 35.5891 38.9743 15.7032 22.163 -27536.6 -278631 -162471 -219277 -59942.4 13534.6 
256 1 35.4306 40.8702 18.239 15.1669 -63297.9 72984.4 447666 -276981 -80729.7 -167783 
235 1 37.0314 38.0506 18.2603 16.1161 45545.9 65800.1 46341.3 -338321 -440597 109114 
257 1 38.6863 38.9497 15.6189 8.13663 -40222.1 -164318 -138496 25014.8 137266 -123344 
237 1 40.2233 38.0719 18.2436 9.54952 211021 -197132 -26409.5 202586 67614.8 118490 
260 1 38.5847 40.7025 18.1526 8.74491 165393 17962.3 -363336 143949 205628 69142 
261 1 41.777 38.8901 15.5688 8.91122 -48036.9 299665 -50064.3 -4616.8 -118077 256767 
264 1 41.7905 40.798 18.1846 9.96784 -239381 121693 200387 -93990.6 -39346.4 -34423.6 
265 1 45.0027 38.9706 15.5238 9.26123 116625 33746.6 546863 25445 55540.7 97923.4 
241 1 43.4077 38.0746 18.1091 9.90938 138434 442513 374803 52202.4 -82303.6 157488 
268 1 44.8576 40.9082 18.1777 8.71869 -116698 -92514.2 308467 -122917 -23836.9 63243.1 
269 1 48.1604 39.0063 15.4653 9.31144 -231413 -208768 494051 -114412 -166856 155619 
272 1 48.1014 40.8901 18.1557 9.06302 75002.2 -14436.9 302312 -257855 -10088.1 19874.6 
245 1 46.5852 38.0756 18.2366 9.56677 -151046 415614 315394 47684.7 -14499.2 -185820 
249 1 49.6216 38.0283 18.0729 8.6446 -102955 121230 -32897.3 -105356 90305.6 -102177 
266 1 46.4424 41.7267 15.5121 9.14364 -520286 -198845 179357 -71269.3 -8536.05 42381.3 
270 1 49.55 41.7338 15.5096 8.28168 -189763 -374019 29206.6 -257142 -10567.9 -210472 
275 1 32.1794 44.4408 15.5994 26.5092 -351862 188659 34443.4 47775.5 110498 -73301.1 
254 1 36.9167 41.6664 15.6078 9.32443 -65643.4 103287 -153817 -276592 -59658.1 -86249.7 
251 1 33.8661 41.7851 15.6119 23.6423 -339248 -198297 44602.7 -174905 -19320.9 -23169.7 
279 1 35.2342 44.5035 15.5833 9.58872 131166 -93650 18462.3 -345529 4097.73 -22016.5 
255 1 37.0523 43.5263 18.1424 9.51411 423638 163420 189702 -136655 157756 31806.1 
252 1 33.8642 43.5709 18.2088 15.7856 108646 -95954.2 562214 -115132 32951.7 -156926 
258 1 40.074 41.7513 15.6448 9.07916 202318 1907.76 4861.37 -135828 202793 -75375.3 
283 1 38.4786 44.4824 15.4772 9.99026 275404 40048.2 59000.3 98848.5 55840.2 54215.7 
259 1 40.2238 43.6244 18.1394 9.19899 6986.72 182636 -48839 -173422 93844.1 -23948.6 
287 1 41.6591 44.4827 15.516 10.1733 245028 -53220.9 -165759 -6136.62 33433.8 -24604.5 
262 1 43.3516 41.6863 15.4878 9.69411 -26029.6 40891.3 -59119 87781.5 -94209.3 -56008.6 
291 1 44.9574 44.4919 15.4923 9.2648 166145 -181390 -329500 -162773 13519 337194 
263 1 43.3249 43.5745 18.0072 10.0634 -500751 -364113 375319 -30682.1 -38747.2 -8455.94 
295 1 48.092 44.4189 15.4878 9.27342 -360615 -274767 -43834.5 -35777.6 -208954 -64514.8 
271 1 49.7 43.4816 18.0823 9.08762 146647 -264691 239644 -158447 46530.8 49810.3 
267 1 46.4653 43.5733 18.09 9.65518 -17944.9 -348049 531724 -161262 -42741.5 -14156.9 
273 1 30.6682 47.3104 15.6833 41.2727 -485821 289338 645087 -216861 51270.2 5974.22 
278 1 32.2381 46.249 18.2338 14.2974 -434493 348209 757048 -486793 -45737.4 185137 
274 1 30.5313 49.1041 18.3601 33.0017 -178404 501525 548562 -309389 17471.9 180193 
369 1 46.5127 49.0445 23.4267 9.81444 131062 -224377 251556 -28304 -202983 48777.5 
276 1 33.6553 47.2765 15.6006 8.76115 -120486 139905 309076 462424 50960.2 160977 
280 1 36.8642 47.1862 15.5478 9.11656 144656 -239568 -163994 47769.4 31972.7 142230 
277 1 33.6198 48.9973 18.3546 9.02039 363570 114762 526478 28597.8 -225966 92040.9 
282 1 35.2263 46.3509 18.1262 9.01552 -418236 41496.3 236276 -21308.9 129338 4789.8 
281 1 36.8027 49.1146 18.2613 8.78787 67737.2 -138572 352687 95461.3 59792.1 65393.4 
415 1 32.1521 49.7687 26.2279 11.6931 57283 258240 272330 230129 -211632 -223548 
284 1 40.1405 47.173 15.6479 8.37226 -56804.3 -85809.2 38284 50479.8 -72890.6 162341 
285 1 39.9683 49.03 18.3596 9.29178 289794 46565 147294 -112973 18214.3 -29422.9 
286 1 38.3577 46.3746 18.1643 8.47967 264834 14028.9 310248 -263771 107508 53622.3 
290 1 41.6723 46.3371 18.1125 9.3764 14036.8 -119879 -103654 -2125.9 -266460 280895 
299 1 32.1965 49.9402 15.6214 11.4815 -12642.4 -297206 585014 389460 -42841.2 -150663 
304 1 48.095 49.8933 15.5637 9.76916 287725 -73857.6 437948 -87508.4 81998.8 -73045.6 
288 1 43.2632 47.2514 15.5242 9.36638 -361543 -238026 -104492 20596.6 52805.7 290399 
294 1 44.7763 46.2912 18.1435 8.41411 65733.3 -187614 312932 -229082 56957.3 38305.7 
289 1 43.2254 49.1018 18.258 9.37426 141619 -85088 368105 237974 -106955 42694.3 
417 1 38.4406 50.0015 25.9963 8.51158 24180.6 167892 -170936 69437.2 128882 -56835.5 
292 1 46.4314 47.1907 15.6004 9.37288 -43711 -122541 -163020 -282963 -286202 -218040 
296 1 49.6435 47.169 15.5534 9.46589 -8476.27 -163849 2312.18 124657 105492 53941.5 
293 1 46.3943 48.9713 18.156 9.64606 501691 193325 268692 -45495.8 -27284 -193383 
298 1 48.054 46.1883 18.1221 9.63322 6606.74 70630.8 249829 -143125 -47298.4 30535 
297 1 49.7044 49.0088 18.1778 9.50985 13956.9 -440052 191588 142094 -41388.8 -113988 
380 1 48.0882 49.9363 20.7403 10.0566 380240 379899 212051 -185056 14894.4 -154303 
306 1 46.5342 30.8933 20.7924 59.0226 146365 -377845 -477139 -76776.8 -39156.8 -68504.7 
308 1 49.7019 30.7753 20.8205 48.7909 579407 -146542 -176281 6594.02 11161.4 -141582 
310 1 36.9806 36.2378 20.7597 36.0553 183796 -96728.6 343406 41423.2 13171.7 116833 
312 1 40.1685 36.3028 20.7791 12.529 613746 -440721 285744 311966 -553.957 -206252 
242 1 41.815 35.3662 18.1882 12.4438 183462 144531 -156753 -144389 -114361 300585 
315 1 41.8391 33.7337 20.7233 26.2378 382630 -395522 248892 -74160 -50173.1 382378 
319 1 45.0554 33.5715 20.6266 10.1379 355442 -638360 -175678 -70307.3 -74665.9 144098 
316 1 43.374 36.3201 20.7527 8.61961 -217543 -322136 -137277 45675.1 -213915 -135954 
323 1 48.1304 33.4853 20.77 9.20695 251173 2151.41 -93167.7 -67247.9 -46733.1 -46773 
324 1 49.7573 36.2492 20.8067 8.28014 88307.5 25810.7 96776.8 -156488 43016.7 -243444 
320 1 46.4539 36.2653 20.8731 9.12459 -180876 78660.2 -276706 -51094.3 -348562 282647 
329 1 35.4196 38.9741 20.916 25.5272 6442.98 6564.23 152553 156625 -72087.4 -60197.7 
333 1 38.5533 38.9894 20.746 9.2531 431444 121832 -279889 372222 -177211 -45853.9 
337 1 41.8139 38.9956 20.8082 9.4927 93903.8 6241.81 68711.3 61071 -161634 91672 
341 1 44.9373 39.0532 20.7923 9.00952 -69411.9 -414116 162220 -321102 139767 -213971 
338 1 43.2939 41.7916 20.7633 8.95679 -534190 -159500 82777.7 -87054.7 -29136.7 -287338 
345 1 48.1627 38.983 20.8235 8.85225 -63635.1 -8424.77 483792 -119618 -114731 -95754.8 
342 1 46.4405 41.7039 20.8492 9.93267 63660.9 -130607 359975 -242845 54016 -184747 
346 1 49.6326 41.6942 20.7695 9.36346 -30739.2 -149283 248271 -75324 -99201 -97612.6 
351 1 32.2549 44.4488 20.8441 25.1852 143813 330575 -93188.2 -3545.68 -207307 151969 
330 1 37.0457 41.729 20.7299 9.12018 56758 269422 -91836.7 333282 -243400 181625 
327 1 33.9376 41.7211 20.928 31.7192 -168693 -333342 -645306 154264 -195921 -233891 
355 1 35.4589 44.4866 20.7373 8.78196 594332 248039 277677 -62859.2 -23548.1 -114446 
334 1 40.1821 41.7796 20.7287 9.60519 -105654 404580 480156 190449 -30797.5 47298.7 
359 1 38.6247 44.5364 20.8537 8.63031 211696 96661 651225 31055.2 12504.9 -95672.8 
363 1 41.806 44.5872 20.7305 8.40367 -301496 -145382 519239 -44765.9 -227955 175.384 
367 1 44.8579 44.4837 20.777 9.72893 -330174 -278929 505394 -213511 99363.7 140549 
371 1 48.0932 44.4353 20.8851 9.56972 -225418 -381198 458005 -63165.4 49056.1 172979 
349 1 30.6595 47.2893 20.9322 33.294 -6503.68 207822 245709 -111456 -225977 210612 
378 1 41.655 49.9845 20.8784 9.41696 174622 1642.25 109019 -102888 -73213.9 -64277.9 
352 1 33.7896 47.2349 20.8957 8.35055 521838 501329 -204069 7242.1 -174613 303839 
356 1 36.9507 47.2155 20.8209 9.33819 -78096.8 -112945 286562 54372.1 176623 13780.5 
302 1 41.658 49.9162 15.6085 9.65532 196124 -188067 423937 136356 -154416 -123660 
360 1 40.1292 47.2451 20.8497 9.34877 -25929.1 -393656 407754 -73362.9 33479.1 369536 
379 1 44.9027 49.9649 20.8567 9.28857 228789 58708.9 114064 23028.4 -99613.3 -207046 
364 1 43.2966 47.2403 20.8409 9.33601 -226133 -225054 250310 -199847 85025.2 134311 
373 1 49.7373 48.9694 23.3448 9.29111 -10857.7 8924.36 247316 -3041.42 -88770.9 -75265 
420 1 48.0606 49.9498 25.9842 9.16603 186359 -73630.7 -25091.7 88495.4 72442.3 -28765.4 
368 1 46.4553 47.0897 20.819 9.01373 -186357 -17713.9 674025 -71407.2 52661.5 47002.6 
372 1 49.5747 47.1011 20.853 8.76653 -11773.8 39843.6 324085 16434.5 -15993.2 -202406 
412 1 46.4575 47.1054 26.0053 8.87798 -16396.3 326636 -227943 70408.6 153923 -297165 
305 1 43.4257 32.4868 23.2311 21.0294 327530 154501 1.225e+06 -429776 -163318 -107680 
381 1 43.5756 30.8496 25.9557 99.4268 -241682 -108052 -214329 37682.1 -109787 -181909 
309 1 49.7202 32.5184 23.3326 14.8426 -338861 96254.4 332757 -183429 -197018 -91376.9 
307 1 46.5719 32.4542 23.4366 12.8552 113299 60825 227269 -155457 66526.9 -392520 
382 1 46.627 30.8594 26.0967 43.3829 -372600 -164563 -200979 1872.6 -3480.11 -13873.5 