ITEM: TIMESTEP
50000
ITEM: NUMBER OF ATOMS
5538
ITEM: BOX BOUNDS pp pp pp
0.0372549 99.9627
0.137726 99.8623
-0.91331 100.913
ITEM: ATOMS id type x y z c_csym c_2[1] c_2[2] c_2[3] c_2[4] c_2[5] c_2[6] 
11 1 40.2677 30.852 -0.17185 96.9175 -658354 -19045.3 35137.6 228163 8516.29 -8574.9 
87 1 41.7981 31.7272 2.33405 48.0122 134341 -240580 -97651.7 6093.13 53597.8 -289556 
1 1 43.292 30.8815 -0.222866 29.9604 -439583 -114121 -4880.5 -79821.2 -4649.99 73008.3 
15 1 44.9708 31.6561 2.50127 15.2894 37890.2 -400509 408663 -61621.5 203254 196424 
3 1 46.4064 30.6595 -0.211843 37.5441 167574 69938.7 65328.9 103139 -167438 240355 
19 1 48.0429 31.6731 2.42099 15.2482 66683.5 -279121 341247 241817 325827 294591 
5 1 49.7385 30.7483 0.00576179 34.6636 200537 -209324 -166652 129926 -26555.4 -139756 
1375 1 37.0732 36.2343 -0.0144203 23.7771 216667 596117 -127218 -199612 -146197 2279.65 
10 1 38.8857 33.5238 -0.182163 30.0879 -131597 -2257.08 63522.1 -401109 76348.5 180615 
6 1 38.6537 37.1819 2.6219 15.8743 200294 -245244 384703 79980.5 -57651.8 19299.3 
8 1 40.2481 34.4262 2.54865 21.7839 165827 178284 341783 -44121.9 -57207.1 468725 
9 1 40.2211 36.2861 0.0601933 9.52646 338013 12103.5 353256 -171804 229284 -4270.13 
14 1 41.8995 33.6502 -0.194227 8.75364 -581329 149763 -22301.4 -172472 -115327 -91545.1 
33 1 41.8397 37.1495 2.66172 8.94047 258104 100283 -146321 128126 -119850 1269.22 
18 1 44.9999 33.4442 -0.0443912 9.78321 -130759 238148 393996 -104407 -157334 -61049.6 
12 1 43.3702 34.3748 2.46651 9.01356 60947.8 189497 -470860 115552 -24546.1 390396 
13 1 43.4137 36.2306 0.0199917 9.52312 14039.5 -132306 241836 -336737 23922.1 72917.6 
37 1 44.9945 37.2616 2.57727 8.31234 73736.6 385962 18899.6 134131 -257740 100566 
22 1 48.1366 33.3646 -0.112118 8.8824 -14906.7 493982 -388062 291748 -179873 488462 
16 1 46.5059 34.3049 2.57356 9.59048 320762 342620 329201 36857 -208542 -126594 
17 1 46.5464 36.1599 -0.02954 9.1499 11554.6 366765 121507 -59850.1 -160430 -34652.3 
41 1 48.1657 37.2232 2.60504 9.23235 104569 353147 4420.21 120459 148265 264234 
21 1 49.713 36.1619 0.0490035 9.30055 145634 319757 -53554.5 248344 -81938.1 95190.4 
20 1 49.727 34.3865 2.57274 10.0213 350045 209869 269583 83559.1 19819.7 213663 
25 1 36.9821 39.7608 2.47732 14.4193 297128 210851 591859 140759 -18224 -147878 
1396 1 35.4146 38.9862 -0.0995299 22.3255 -65402.4 380603 -388915 -120223 -301624 -10863.4 
7 1 38.5713 39.0659 -0.156782 8.59005 333371 636549 148344 223163 236170 -9246.07 
29 1 40.1649 39.8477 2.6288 8.74845 273914 152230 49160.9 69095.1 -126525 -12147 
36 1 41.7497 39.0139 0.015541 9.20199 160637 375232 642856 -181356 -79178.2 -40272.3 
34 1 43.3555 39.9549 2.6532 9.61438 -59890.3 -248125 -238939 39083.8 347791 49006.2 
40 1 44.9106 39.0186 0.0398086 8.63896 121790 -136513 25579.1 -65462.7 -110006 211350 
35 1 43.3874 41.7172 0.0130294 9.13611 -45391.7 -210521 107863 -43590.9 -239248 86944.3 
42 1 49.8524 39.9036 2.66926 9.03164 240323 39061.3 109235 -18689 62350.5 -199411 
38 1 46.5489 39.9701 2.62238 8.96049 160050 -321303 -103203 -39711.3 -141058 16592.7 
44 1 48.1302 38.972 0.057117 9.05452 502734 38433.6 161682 211909 -94869.6 267786 
1418 1 32.2578 44.45 -0.132777 22.0558 -246210 108788 -658388 -159618 218335 -251172 
28 1 37.003 41.7732 -0.165265 9.3746 351907 197615 200661 221276 -195855 156358 
1392 1 33.8302 41.7071 -0.0243666 22.5862 46300.6 35941.1 -119423 -177937 41777.2 59523.4 
47 1 33.7863 45.2148 2.52405 14.4129 63147.9 508933 514700 192888 137487 -112784 
23 1 35.4106 42.5157 2.60942 14.8185 210833 286974 727159 33536.1 -122450 17898.8 
24 1 35.344 44.4413 -0.00399422 9.6006 -263715 -229950 -318549 135718 -40200.3 -115589 
51 1 36.8628 45.3623 2.59023 8.98317 400851 -39510.6 353116 157041 -13072.8 12451.5 
32 1 40.1863 41.8339 0.0562236 8.93195 254143 144619 417288 -143221 235544 -43752.6 
26 1 38.5251 42.5755 2.58491 8.7396 375434 639521 123101 151878 192166 -66170.9 
27 1 38.5148 44.5155 -0.0879347 9.10755 66659.6 -374417 295904 -151019 -85164.5 158356 
55 1 40.169 45.327 2.68307 9.47707 409796 148699 290968 114143 252874 -190272 
30 1 41.8007 42.6291 2.6935 9.32864 69646.1 -215447 63933.2 156665 16456.2 23753.9 
31 1 41.7577 44.4849 0.0981404 9.40374 47388.9 -203492 313589 -61380.4 75748.2 22780.2 
59 1 43.3637 45.3909 2.65876 10.0091 -28087.3 -196528 374218 -40987.6 -162021 -82046.4 
63 1 44.9565 42.6655 2.54917 9.40532 -24016.2 -171680 120538 -905.751 -98898.9 -70567.3 
66 1 44.9422 44.4591 -0.0408364 9.63609 143823 -217317 110822 -132686 -154715 57416.2 
43 1 49.8327 41.6989 -0.0969443 9.35074 86682.5 -75107 442516 178648 -27225 -128358 
39 1 46.5827 41.6826 -0.0430754 9.00918 158352 -80817.7 -254806 -55305.7 101598 -12607.4 
67 1 48.1819 42.6175 2.52869 9.95419 187367 71591.6 365093 -135682 -82891.4 156230 
64 1 46.5404 45.347 2.66298 9.56016 -100185 82366.6 -232810 11217 20945 176505 
70 1 48.1753 44.4706 0.0501031 9.22717 -283719 -344316 -164839 38530.8 -99786.5 -63611.2 
68 1 49.683 45.4622 2.54567 8.73828 -290131 -202976 -185924 -75067.8 -156413 -89151.3 
45 1 32.297 48.0009 2.47617 18.4414 338707 16680 3271.04 173296 156584 123502 
1414 1 30.6091 47.0635 -0.0296116 56.6671 175241 170438 150193 22400.8 -118134 -31217.6 
61 1 44.8507 49.9292 0.0870849 9.15238 324133 -29518.3 -24537.7 -181186 -67065.3 -25035.4 
50 1 33.8551 47.1993 -0.0213324 9.51389 83614.3 194401 -19849.8 318165 527509 10313.4 
48 1 35.4897 48.0727 2.69288 9.06626 227809 98973.9 135785 251372 133969 -57978 
54 1 36.888 47.1773 0.0130302 8.95597 -68361.2 -104397 245855 -37646.3 -23053.7 54974.1 
52 1 38.5767 48.0428 2.79877 10.2132 -367840 -125923 116813 -120772 -33588.4 172542 
58 1 40.1188 47.1183 -0.0616953 9.51619 119436 -295148 322472 -163203 -237367 133320 
56 1 41.7244 48.0986 2.55953 9.92343 -69660.4 153947 319930 248802 73663.6 124542 
223 1 32.1062 49.8961 10.3967 12.1119 -162035 -268444 419229 -280596 209338 97191.5 
62 1 43.3545 47.2211 -0.0350926 9.96775 154987 -298735 241589 -64122.1 106510 -95694.1 
60 1 44.8978 48.0891 2.64111 9.97566 192339 47915.2 357047 -294675 20029.6 195005 
228 1 48.0284 49.9505 10.5503 9.54129 29939 243053 239338 -132133 90822.8 -3395.24 
69 1 49.71 47.1902 -0.0285987 8.62688 -57765.6 -175863 -310348 209347 -35562.8 33900 
65 1 46.5529 47.0764 0.0617817 8.80987 53192.4 35274.2 121979 -150681 15948.6 -37498.6 
76 1 48.1399 48.1646 2.57705 8.90949 -32427.8 -176009 -68813.5 165819 -73905.3 14443.8 
225 1 38.5834 49.9709 10.3162 9.60338 -98575.7 -112740 -334409 353842 123519 114880 
77 1 43.3786 32.5773 7.92594 41.3243 -105866 42269.4 -133921 -48449.1 -266653 -63147.3 
4 1 49.69 30.8317 5.14146 26.46 103470 -391943 -10671.7 98072 33395.4 -419634 
2 1 46.6078 30.8365 5.06755 33.7846 -148640 -66916.7 114956 -386335 27833 -156822 
78 1 48.0759 29.9047 7.77273 45.0328 -454318 -268254 86176.2 -77724.1 133469 -126301 
79 1 46.4965 32.5836 7.66207 12.7685 151883 85417.6 407222 -93267.6 207675 -69896.7 
81 1 49.753 32.4875 7.65373 9.28125 453202 -58634.3 -312917 -186900 -31788.6 57478.2 
82 1 37.0528 36.2154 5.25227 50.71 -245540 165833 165890 53877.1 -73402.6 -40645 
84 1 40.1138 36.3734 5.20982 16.7148 -211184 -203569 -606.874 199447 -201904 -54772.3 
86 1 38.5862 35.5036 7.8491 34.9612 -423872 -189119 -340284 108459 358754 -220563 
91 1 44.7732 33.5159 5.12229 16.1692 477041 389240 537930 -23416.2 -131944 155732 
90 1 41.6684 35.2189 7.83434 12.6922 336833 368852 -57553.2 -182490 119340 -148108 
88 1 43.2586 36.2257 5.227 8.88936 293093 299321 475274 115867 -187555 -2084.43 
94 1 44.9732 35.269 7.81735 9.1249 -153877 -26335.2 -344788 102141 -129486 -35814.4 
95 1 48.1054 33.4637 5.18767 0.238837 350627 -56215 -21070.7 75843.8 33376.6 237672 
92 1 46.4851 36.1993 5.11444 0.351758 231926 275374 154918 396956 -53544.7 118561 
96 1 49.6853 36.2609 5.19528 0.1509 86169.3 396645 -167337 -56112.4 -154818 40564 
98 1 48.0379 35.34 7.72379 8.99794 -172920 276473 121677 -34118.9 142693 28875.8 
83 1 37.0075 38.1196 7.83156 14.8896 -88956.2 10178.9 183361 8458.1 210704 65941.7 
101 1 35.5538 38.9717 5.21927 41.9208 -279833 36704.3 -67046.1 -165650 -97129.5 25876 
104 1 35.3564 40.7425 7.83914 15.0988 -156925 -645526 52118.5 155901 -28101.2 124537 
85 1 40.2201 38.1153 7.72892 9.73343 -99636 70322.1 90653.9 3747.57 -119671 -77870.2 
105 1 38.5876 39.0251 5.26693 0.245625 -280492 -122362 -37021.5 393406 -63176.3 32527.3 
108 1 38.5728 40.7995 7.85841 9.00275 168707 -345726 -28544 30848 -127379 20577.2 
112 1 41.7145 40.8029 7.81202 8.93273 -541062 -454653 313602 39058.3 144390 -110657 
109 1 41.7567 39.1058 5.12139 0.684829 -39368.3 222584 -386984 -44298.9 98410.3 17238.7 
89 1 43.2498 38.0065 7.86674 8.55013 -67095.4 368739 -116002 183388 193673 7924.52 
113 1 44.9872 38.9379 5.27794 0.46218 90823.1 65456.3 261013 159160 -64212.5 -84632.9 
116 1 44.7779 40.7533 7.92322 8.71413 -37829 131354 193429 185893 -362329 -12360 
110 1 43.4283 41.7254 5.25379 0.363594 -270604 -307528 55120 -49925.4 -121843 -24603.8 
93 1 46.4781 38.0411 7.83869 9.84427 -435648 -288643 318461 -75275.9 -169222 134135 
117 1 48.0895 39.1142 5.19664 0.540045 -103743 -24129.3 -246440 16116.8 -241812 156254 
120 1 47.9363 40.7543 7.90546 8.6315 276403 -376771 120321 -61953.2 212622 -271297 
97 1 49.5237 38.1065 7.70479 8.72868 -113185 -14383.4 452596 -92871.9 -74115.9 -92965.9 
123 1 32.3771 44.3145 5.30777 39.7264 -28911.4 314876 -258642 8616.48 -113878 -89505 
99 1 33.9174 41.6483 5.27533 33.6572 -11013.6 -278063 -355394 130290 -84984.7 -56308.4 
102 1 37.0609 41.6513 5.20724 0.232165 -101443 -304763 128249 33966.9 -120239 -21795 
100 1 33.7 43.305 7.87728 15.9055 104413 64516.9 -93661.1 270493 -109936 7727.69 
103 1 36.9164 43.3937 7.80492 8.44289 581454 184813 221690 209421 -4628.6 128647 
127 1 35.4494 44.3954 5.25835 0.320814 -65767.5 382732 307478 34219.9 -192450 -110825 
106 1 40.1228 41.7601 5.18927 0.30881 -372283 -516495 -16265.5 119099 105587 -51907.7 
107 1 40.1595 43.4355 7.82733 9.08175 43295.5 -220576 33364.3 -8159.92 243634 42042.3 
131 1 38.5362 44.4006 5.25042 0.101355 -316999 -438458 105888 106241 180817 -99518.8 
135 1 41.7688 44.3777 5.33446 0.266104 274583 117674 153513 -11846.4 76774.6 -107481 
111 1 43.3302 43.5097 7.93236 9.38634 -277478 -185440 105391 195535 -189468 -60414.6 
139 1 44.9717 44.4556 5.22029 0.135682 -164756 -350792 -61190.7 -55091.4 -83676.5 81944.7 
114 1 46.47 41.7541 5.22322 0.137958 -193256 -264363 605261 181524 -107268 -134332 
118 1 49.7157 41.7004 5.22069 0.145852 317018 -153527 66509.9 -173150 71988.7 -325417 
115 1 46.4207 43.5946 7.85677 8.67497 -321856 -211732 -18131.3 138809 -124098 83201.4 
119 1 49.5818 43.41 7.8201 8.56045 -13450.6 165299 221062 222537 23830.8 -64097.1 
143 1 48.1014 44.461 5.19782 0.115987 -264936 -50104.8 232860 -24667 -184962 106591 
121 1 30.6962 47.1015 5.04269 44.0093 15948.9 -33703.6 331548 -282032 63178.3 89936.6 
126 1 32.0608 46.0947 7.8377 15.9907 265354 294278 489464 -83939.5 18169.2 -128234 
122 1 30.6448 48.8262 7.72962 32.0983 -395544 83357.4 190982 -64529.1 187325 275763 
125 1 33.7003 48.8631 7.86295 9.13472 353136 281942 -7098.97 388942 -51513.4 -21695.4 
124 1 33.8232 47.1969 5.18274 0.439655 533894 474511 452328 43510 -140171 -92290.7 
128 1 36.9946 47.1274 5.29255 0.182183 -173546 -167187 -507627 164549 -10902.8 90822.3 
129 1 36.9577 48.9827 7.77737 10.5696 -9313.5 292320 157921 -101111 -240290 -155508 
130 1 35.2851 46.1836 7.84662 8.96625 823610 424048 126676 327220 1473.65 -71822.7 
222 1 48.1509 46.3172 13.0586 9.67163 36905.8 368374 -81840.1 172550 -71097.8 13838.7 
132 1 40.1925 47.1348 5.26416 0.247577 -20114.3 190725 -81600.4 -36673 -128846 -52543.1 
133 1 40.0561 49.0112 7.80848 8.639 -215027 207625 -195606 73897 259720 -124133 
134 1 38.5236 46.1961 7.81899 9.34149 372927 285172 -196341 123096 -37359.3 84139 
138 1 41.7818 46.2185 7.93085 9.59 350891 223242 15764.6 67327.5 65019 -165638 
136 1 43.3449 47.2679 5.29568 0.2852 204419 467878 85775 -72626.9 46135.1 -162519 
137 1 43.2497 49.0758 7.80664 9.55749 426074 209647 139957 8848.57 256449 -126840 
142 1 44.9689 46.2839 7.80119 10.1074 -109749 -152443 316761 85667 4971.42 16009.9 
216 1 46.5357 47.1485 10.5492 9.85093 153363 273335 444379 -11722.8 -103195 191892 
148 1 35.3749 49.9017 5.27124 0.0896707 271897 -452519 -141944 -151949 58308 42547.6 
140 1 46.5249 47.1766 5.2419 0.0604713 -156097 -350942 -19109.2 -218728 68960.7 -78753.7 
141 1 46.5531 48.9647 7.85218 9.12649 261818 225623 311071 -236446 4820.9 70965 
144 1 49.6804 47.1245 5.21447 0.253432 -138895 -230051 132296 107427 -105203 -69863.3 
145 1 49.6555 48.9969 7.81827 9.72353 -197268 -105376 287037 118397 -102809 49320.7 
146 1 48.1089 46.1983 7.85669 9.5129 -393562 -53611.1 444195 -35665.4 44670.1 54011.6 
153 1 43.4913 32.51 13.0616 18.8793 333854 324379 977243 -325514 147180 -270542 
157 1 49.8027 32.5071 12.9404 15.0202 -43571.4 181561 632845 7401.23 28255.7 -299137 
155 1 46.6431 32.391 12.8371 13.8047 265026 365014 84933.1 -55078 -302895 -215469 
154 1 46.5569 30.769 10.2867 35.4382 131116 -88215.5 -442861 -43570.3 107883 -301965 
156 1 49.7091 30.9087 10.2569 18.9271 392332 -665742 -149627 -29414.1 -27514.9 268799 
158 1 37.253 36.2645 10.3928 40.4888 -230708 -72484.9 -638896 102966 238821 -358584 
160 1 40.2896 36.3529 10.3901 10.1011 -77688.8 -145738 404300 -19134.8 10850.7 -161388 
162 1 38.725 35.2705 12.9587 31.8206 4666.04 -42503.2 611010 -196925 -247176 135332 
163 1 41.803 33.5737 10.4468 29.5231 440526 -34604.4 137570 -112606 108520 90616 
166 1 41.8278 35.3295 13.0485 12.209 12903.7 23564 551328 -410392 52485.2 25695.9 
167 1 44.9972 33.539 10.3762 11.6327 341318 -405802 20612 -210143 -137665 110276 
164 1 43.4252 36.2155 10.3391 8.91984 -251117 -242929 191194 252153 101528 84822.4 
170 1 45.0046 35.1887 13.086 8.75674 179623 166214 565918 -315453 -114796 -168791 
171 1 48.1418 33.4761 10.2804 9.80255 303453 -281587 521763 273829 171109 89942 
168 1 46.5112 36.138 10.3742 9.51949 -221761 -150550 -69431.4 8641.26 -180133 -48032.9 
174 1 48.1859 35.2448 12.9021 9.68983 433324 404776 344749 44172.2 -20117.1 241367 
172 1 49.7818 36.1442 10.3658 8.85567 -11620 170585 321875 -260820 233054 -180350 
177 1 35.5699 38.9869 10.3619 22.9709 -130466 -259636 -396745 25272.9 99143.5 -13942.2 
159 1 36.9805 37.9081 12.9724 14.4845 316741 779710 492600 -172399 -60485.3 -252906 
180 1 35.441 40.8163 12.9962 15.013 -145377 420242 -36915.6 -182617 63569.8 337816 
161 1 40.1792 38.0123 13.0661 9.00142 453670 389821 61225.6 -4756.18 108061 -164107 
184 1 38.555 40.9172 13.0787 8.3477 484967 421021 -32986.1 -139710 75569.5 1608.18 
181 1 38.6974 39.0772 10.4294 8.80494 501636 103075 632709 93703.2 -131521 121380 
185 1 41.8623 38.9369 10.3895 8.75212 -594966 -261035 80239.9 -53913.4 128083 -168911 
188 1 41.8524 40.648 13.1672 8.81525 73426.1 383456 245112 -118663 140410 101950 
192 1 44.9441 40.7484 13.0709 9.73385 -751623 199604 321035 42151.1 -68686.6 83897.6 
165 1 43.3641 37.8925 13.0514 8.35437 9247.9 -45316.9 529268 4880.82 20130.3 71280.2 
189 1 44.9011 38.936 10.4803 9.56931 -364283 84637.4 138082 -164783 5301.8 21925.9 
186 1 43.2624 41.7262 10.5663 8.83907 -269624 -387910 54283.6 -21704 43644.3 91960.1 
169 1 46.4864 37.9027 13.083 8.90401 49721.7 -33924.2 100486 -81665.8 277497 9447.44 
196 1 47.9535 40.7231 13.1836 8.84723 -82647.8 457358 136219 -43284.5 2805.42 -285355 
173 1 49.7458 37.9431 13.0217 9.62333 16990.4 169121 72451.2 -272355 -161200 90452.2 
193 1 48.0879 38.9396 10.5627 9.53013 54564.6 413970 245791 -8333.41 -45864 80393.9 
199 1 32.2305 44.3522 10.3787 24.7058 -57058.6 169537 -116099 -203807 98587.1 119839 
178 1 36.9681 41.7169 10.5022 9.65525 120325 -111483 -159239 197086 128244 201227 
175 1 33.8781 41.5653 10.4031 25.0766 -333718 -251670 -548887 119776 73944 145228 
176 1 33.7696 43.4549 13.0077 15.7962 52269.4 536881 387297 -95968.6 265989 79504.3 
203 1 35.3417 44.3881 10.475 10.019 304657 173195 -37615.2 198562 -72441 229523 
179 1 36.9201 43.6714 12.9957 8.47876 468107 102285 -378026 205848 -159740 -105521 
182 1 40.2192 41.6695 10.4296 8.8109 -246104 -426471 48282.5 -419235 30885.2 -14045.7 
183 1 40.1903 43.4452 13.061 9.40052 225133 51222.2 -151659 -368420 152551 -109824 
207 1 38.5994 44.4509 10.4151 9.44193 80629.5 -148514 170643 71080.3 73567.2 104996 
211 1 41.752 44.4012 10.5378 9.88642 -116029 -323105 -66986 106258 150093 -20879.9 
187 1 43.409 43.5313 13.1231 8.74102 -179045 18211.5 90068.2 -34085.3 -6867.63 -33163.9 
215 1 44.899 44.399 10.5081 8.95407 -166074 -253268 -23150.2 -36537.8 -17304.2 -56142.2 
190 1 46.4811 41.7391 10.3932 9.14153 179126 -160113 34930.4 7881.66 152282 -124019 
194 1 49.7095 41.6963 10.5018 9.40453 213905 29736.8 197908 115242 61971.1 -62338.1 
191 1 46.4591 43.5525 13.1613 9.18343 -67329.8 245476 246734 117241 93999.2 113750 
195 1 49.7267 43.5367 13.1272 9.22255 29953.8 224516 40360.3 191338 -70864.8 -124759 
219 1 48.0975 44.3797 10.4743 9.30855 252070 -121984 307131 11527.1 -31795.7 -8292.58 
202 1 32.2114 46.3504 12.981 13.507 -208581 239073 446932 -318532 253714 239280 
198 1 30.67 49.0026 13.0517 30.2113 -104388 42681.6 279879 6098.9 -57304 -35950.9 
197 1 30.684 47.2047 10.4029 44.1079 -583529 -50792.3 -56775.8 -86266 -42675.1 60907.9 
206 1 35.3067 46.3157 13.062 8.8343 409215 153464 209916 374295 -154966 -53355.5 
201 1 33.7678 49.0358 13.1312 9.44707 393906 -8692.24 589808 -217673 103143 -81445.9 
200 1 33.6734 47.1073 10.4276 9.18711 -33501.4 168310 -219066 -65435.5 341132 324038 
205 1 37.0504 49.0502 12.9759 9.69578 336265 615810 560984 57051.9 -141188 112441 
204 1 36.9595 47.0553 10.4167 9.14946 369052 206052 315719 184384 -87788.8 -85624.8 
209 1 40.1735 49.1547 13.0031 9.0993 -216450 22507.1 396354 -200276 250880 -23387.6 
210 1 38.6431 46.2975 12.993 9.3127 71961.1 201096 -91248.8 -12778.4 41733.2 7264.13 
208 1 40.2033 47.2183 10.4155 9.74031 129495 48902.4 5516.96 7409.58 245373 28898 
214 1 41.7762 46.2563 13.0367 9.75034 -333740 210714 233300 -171725 -82414.5 -175792 
217 1 46.5958 49.1254 13.1483 8.52418 292682 -220018 -336348 24048.1 203409 301998 
212 1 43.3781 47.2311 10.4657 9.13209 -2568.36 67382.3 172953 -182619 -170679 -54644.1 
46 1 32.2704 49.8319 -0.00090653 16.0431 -155327 207313 -171480 153301 71173.4 172815 
213 1 43.2905 49.0272 13.0822 9.47766 167.699 -348590 -238700 -170510 -28737.2 100682 
218 1 44.832 46.2926 13.1036 8.80414 -358666 -75353.2 -378388 114509 -12201 -41849.7 
221 1 49.8013 49.1143 13.1359 8.60673 -175843 79826.4 310566 46441.8 -27921.3 25386.5 
220 1 49.7132 47.2369 10.4852 9.31188 -631491 -174084 -99239 62398.1 98695.5 192141 
224 1 35.2406 49.862 10.4225 9.71705 655488 399642 467470 -27982.6 -154392 -106400 
147 1 32.1379 49.8182 5.25524 17.0278 199939 161759 36107 17302.7 27697 -59283.2 
152 1 48.0289 49.8952 5.21293 0.229441 -99450.7 221028 -157383 -208384 -4384.79 -19669.6 
53 1 38.4161 49.879 0.223857 8.97085 -105126 359527 93776.8 -18614.1 -436116 -234905 
227 1 44.8734 49.9257 10.5822 9.96023 99532 73653.9 299329 -261929 77460.9 58028.9 
149 1 38.5478 49.9918 5.20124 0.391635 -505334 -77631.2 -187930 128525 -82977.3 -184204 
1503 1 48.0943 49.9433 0.0588998 9.00501 500260 96326.5 4977.59 43551.4 77419.5 150681 
57 1 41.6719 49.8505 -0.0114384 9.39202 203313 -5119.52 5937.23 184678 262479 149179 
230 1 43.3782 30.6209 15.627 116.192 482000 184119 -96897.4 10049.4 5344.03 -6865.63 
229 1 43.3988 32.3164 18.2836 20.8081 93550 256204 969990 -282953 118315 160677 
232 1 46.6193 30.8454 15.5928 42.9966 611295 -555813 -29701.8 18692.1 19105.3 44585.2 
231 1 46.5304 32.3658 18.3725 14.3139 264127 158985 646733 70563.2 -157433 -69070.4 
233 1 49.749 32.4383 18.2531 14.672 277642 383012 654842 40746.6 75345.1 -104129 
3049 1 49.7257 30.6706 15.6582 55.2238 97782 159758 -170244 -117250 -19152.4 -189669 
234 1 37.0048 36.2873 15.7528 33.4175 19429.3 -289163 290378 -63425.5 -162606 -18073.4 
236 1 40.1783 36.2017 15.6703 12.4006 490927 -246665 575478 120852 12082.9 5138.01 
238 1 38.5518 35.3631 18.3208 31.4604 322849 -325919 383846 -360225 -108996 30367.5 
243 1 44.974 33.3555 15.7611 9.71648 -433.602 -129086 320618 183603 -60063.1 -164116 
239 1 41.9046 33.5258 15.6096 20.2389 60051.6 343556 427239 -342689 115345 -138244 
242 1 41.8354 35.1292 18.2887 11.102 207210 233343 90715.8 -463363 123303 65838.1 
240 1 43.3642 36.1871 15.779 8.76192 -238034 -90742.8 29030.1 121396 154113 -122988 
246 1 44.947 35.0259 18.3216 8.33544 -41805.2 521721 -28635.8 1079.49 -57343.8 -275633 
247 1 48.0986 33.4541 15.4594 9.67831 525715 212635 611369 -349152 139842 -106003 
244 1 46.4107 36.1217 15.7218 9.09714 70782.1 43712.7 132234 128820 -190081 -610.882 
248 1 49.772 36.1766 15.7688 10.1422 26984.8 168978 493268 -93412.7 74684 142793 
250 1 48.1019 35.1475 18.2529 9.40587 261041 669507 -16309.7 183504 97087.3 183662 
253 1 35.573 39.1026 15.5755 28.6996 -320587 -263509 -13135.4 -43093.4 4293.33 150905 
256 1 35.3797 40.8754 18.2166 14.3241 -429385 -623171 362198 -147944 -235700 -5824.48 
235 1 36.8431 38.007 18.3072 15.5814 366602 594803 526456 -119697 -52010.6 -380998 
257 1 38.628 38.9125 15.549 9.9326 254748 272729 540773 153802 113553 -88959.5 
237 1 40.115 37.914 18.3538 8.73236 515280 259882 167053 -269026 106947 57905.7 
260 1 38.5334 40.7915 18.2239 10.0284 155405 134781 523268 -48759.5 78762.3 66457.5 
261 1 41.8259 38.8641 15.762 9.17721 323603 174840 241781 193903 -111220 228254 
264 1 41.6792 40.704 18.4442 9.55929 -76907.9 421604 -143851 -5814.24 -61421.5 -45244.4 
265 1 45.0587 38.929 15.6263 8.50747 -15775.3 -102361 -127438 249207 -21917.3 -251682 
268 1 44.8559 40.5458 18.2687 8.34677 291313 388094 53543.2 178860 -84731.7 4284.01 
241 1 43.2739 37.8609 18.3379 8.68229 187546 31266 -220311 -185240 -324220 -30626 
269 1 48.1351 38.8445 15.732 9.64548 -264479 52564.6 217657 16888.6 27419.4 97388.5 
272 1 48.0725 40.6801 18.2847 9.36973 323267 -62524 233356 -60386.1 63528.2 40664 
249 1 49.7087 38.0217 18.3618 9.48624 279327 109602 -224447 105656 8409.16 220287 
245 1 46.478 37.892 18.29 9.07895 279456 5521.11 191155 249989 139903 -86581.2 
275 1 32.3817 44.4933 15.5698 31.17 -283242 -146626 105085 -176199 95622.6 -100363 
254 1 37.0199 41.7467 15.5697 8.6647 -129268 -343625 -21611.6 26507.4 117838 -195064 
251 1 33.967 41.7679 15.6723 22.8182 -448572 -764004 -439146 87321.9 -117348 27013.9 
279 1 35.4273 44.4085 15.6335 8.83952 -113052 -94239.7 358793 128125 123228 2396.46 
252 1 33.8197 43.453 18.2507 14.83 -363129 -151653 321046 -43989.7 21573.9 53219.8 
255 1 36.8722 43.3951 18.2892 8.38217 -241635 -437891 209207 103960 -55962.5 76809.3 
258 1 40.2071 41.6521 15.7318 8.5988 -17372.8 -224692 120590 -309751 174006 28273 
283 1 38.5984 44.4298 15.5555 9.45922 -310227 157820 351626 -79853.4 -32645.2 -67406.7 
259 1 40.0286 43.4446 18.3812 8.69318 461819 -245863 106317 -126147 99972.6 108277 
287 1 41.6631 44.3499 15.7195 9.24626 64867 57659.5 470738 60717.8 -168082 -71453.9 
262 1 43.3797 41.7195 15.7764 9.04349 194379 362108 351600 139233 -273578 44682.9 
291 1 44.983 44.5202 15.7335 8.55792 231311 42432.5 -244616 -9923.62 156012 -78230.5 
263 1 43.3596 43.5893 18.3221 9.3857 257290 25530.1 -4869.23 -115050 -86206.8 -132495 
266 1 46.5588 41.7239 15.7346 8.62271 -375514 165191 -234143 -16449.2 157962 3227.43 
270 1 49.6316 41.6372 15.6943 9.58597 -294321 -5903.3 -233805 79316.7 67323.7 -81678.1 
295 1 48.1732 44.4477 15.7576 9.02603 -265423 -94477 101.423 -199911 64946 -130402 
271 1 49.6503 43.3491 18.3348 8.52231 -109393 -67283.3 23870.8 77418 -155177 12927.8 
267 1 46.5323 43.5434 18.3348 9.95358 -80462.8 185935 224092 -4584.66 -86792.3 -37720.8 
273 1 30.7482 47.2074 15.6508 33.0493 -363000 -307330 103225 -115902 -187232 199974 
278 1 32.1186 46.3555 18.2651 13.5005 317030 537558 319439 -311930 -55112.9 197272 
274 1 30.5554 49.0119 18.3395 32.2182 -408147 -176894 365221 -230843 -135097 -65179.8 
276 1 33.824 47.1463 15.7815 9.29048 259552 181767 379248 -86184.1 188080 24621.8 
280 1 36.9951 47.2039 15.5467 9.76537 164463 374374 160116 -63817 -99390.7 -175432 
277 1 33.6783 49.0755 18.3011 9.40275 479336 294691 140955 -81175.1 -126607 -75020.6 
281 1 36.8827 49.001 18.1307 10.4385 301359 236220 547238 23374.6 -114839 -31320 
282 1 35.4247 46.1845 18.3344 9.41317 413193 467628 -71121.4 39979.5 -209325 57328.8 
304 1 48.1303 49.9423 15.778 9.2578 -272984 20691.3 46645.5 -35255.2 -65500.1 33418.5 
284 1 40.1672 47.2519 15.656 9.33555 129694 307549 489785 -50136.5 -33454.1 -136860 
286 1 38.5402 46.2575 18.2957 9.72378 -185991 483297 564457 124818 -16983.1 -128530 
285 1 40.0629 49.039 18.2812 8.96935 120872 256096 -56077 -42568.7 -3641.45 -129280 
290 1 41.6723 46.2175 18.3355 9.50123 -235648 108067 239419 87573.5 90509.2 -106394 
379 1 44.8599 49.8725 20.9274 9.60526 115047 -303702 -42993.6 -419468 320916 180391 
376 1 35.2766 49.8789 20.9046 9.93814 546366 29847.7 -140441 96775.4 -372488 29825.6 
288 1 43.344 47.2271 15.6391 8.93136 -262413 -183100 -80452.9 68874.1 55092.4 -98752.4 
294 1 44.8431 46.2459 18.2915 8.7381 -87328.4 -533964 157224 -290430 126856 -220271 
289 1 43.2513 48.9816 18.2706 9.02548 -13921.2 -163360 -40989.1 -205585 -133736 27131.8 
292 1 46.4835 47.2324 15.5867 10.181 -83459.8 -197452 -59276.8 -251679 3381.97 -151235 
296 1 49.6603 47.1686 15.6941 9.55695 -480089 -282741 -99189.7 55243 -38590.7 -23166.6 
293 1 46.443 48.931 18.2018 9.86911 47977.4 64330.6 327501 -71262.8 126618 -11415.3 
297 1 49.6227 48.9839 18.334 9.75469 -199277 351353 -21548.3 -66398.4 150166 -22889.6 
298 1 48.0742 46.1997 18.304 9.56535 193992 -117402 390181 -139528 64474 -171120 
306 1 46.6706 30.7926 21.0985 56.195 -443062 -575015 -370346 16332.1 146487 -101473 
308 1 49.7225 30.8089 20.956 46.2815 292496 -543469 -224041 -148341 31329.5 -200582 
310 1 36.9775 36.2 20.9651 33.7649 302981 -338865 258795 -21742.5 32926.8 -160556 
312 1 40.2204 36.1964 20.9034 10.3651 624699 -390342 -90014 -19212.1 -356289 7551.83 
315 1 41.7625 33.4464 20.8934 31.0324 80303.7 -193873 182855 -74144.5 -96075.9 15253.1 
319 1 44.9024 33.2705 21.0012 13.1706 448696 -52706.5 353008 104757 90032.2 -322.568 
316 1 43.3785 36.1075 20.9064 8.8759 -144955 102762 -92346 -269914 -108279 167463 
323 1 48.0668 33.4218 20.8544 9.00805 30442.2 -873494 -190112 117042 -107464 -9444.28 
324 1 49.6903 36.1934 20.8141 9.42305 -23327.4 -1723.56 282847 122755 77150.4 147999 
320 1 46.549 36.0024 20.8689 9.60827 -146841 187589 105381 421829 45404.9 -29239.1 
329 1 35.4031 38.9622 20.9096 24.5818 -399072 180971 -93443.5 21875.2 64331.8 -334002 
330 1 36.9406 41.7157 20.8851 8.7918 -134414 -13010.5 171042 20011.4 -113585 281076 
327 1 33.9188 41.7751 20.8347 21.5909 -354329 -236980 -316105 -20158.5 -68099.3 106747 
333 1 38.4544 38.9079 20.8633 9.66207 29516.6 557322 40515.8 51817.9 66424.3 -245612 
334 1 40.1073 41.6719 20.8782 9.66392 -794.98 -153130 -418950 234123 275462 -112982 
337 1 41.6243 38.9039 20.9734 9.31358 230828 -19134.5 211921 -251485 -18784.1 218251 
341 1 44.8655 38.7674 20.9267 9.67417 404287 -161848 182840 -207707 38271 194907 
345 1 48.1339 38.8885 20.9471 9.38365 225254 -41604.5 202679 385938 223591 -145830 
346 1 49.7055 41.6753 20.9635 8.41067 -340355 -225622 52417.2 4358.14 8387.05 98441.9 
342 1 46.4887 41.5443 20.955 9.82788 192542 46883.5 390776 146019 -25853.8 -58737.6 
351 1 32.2595 44.5101 20.8922 32.8508 -53558.1 -56603.5 176833 -180414 -28234.9 46597.5 
355 1 35.3675 44.454 20.8904 8.34752 176500 -257682 331578 -35488.7 -12848 163300 
359 1 38.4877 44.3605 20.9462 9.75755 -133434 -601305 -93543.1 -11086.6 -19659.7 -179041 
363 1 41.78 44.398 20.9542 9.97351 -88751.5 -94304.6 -43898.6 115933 187695 -10289.4 
338 1 43.3356 41.5824 20.9067 9.75448 -38118.6 158455 192719 -181896 -26465.8 -69017.5 
367 1 44.8783 44.3847 20.9319 9.1979 -230869 39608.6 -158331 -63932.3 -48911.6 -52397.8 
371 1 48.0974 44.325 21.0039 9.57322 -48266.4 -179258 -58077.8 -1709.04 43742.6 -20751 
349 1 30.6426 47.1839 20.9587 34.1479 -332724 -362058 8587.26 67152.1 759.947 -130076 
417 1 38.4802 49.8721 26.0818 9.70551 134840 204169 432937 169346 184895 7585.1 
299 1 32.1129 49.8706 15.6964 11.6129 24205.8 -141804 317771 -96787.9 -79663.4 -94306 
352 1 33.7309 47.1743 20.8603 9.5213 297550 -43027.2 266493 -230324 -5349.21 -183547 
356 1 36.9096 47.1444 20.8909 9.3378 184126 -21702.7 -18436.8 -68.3455 -221174 -357536 
360 1 40.1336 47.0259 20.8966 9.39607 259462 88453.2 4566.48 -95052.7 -105969 -45167.1 
377 1 38.5294 49.9671 20.9147 9.42179 -92446 224680 -322607 -127562 265292 -74701.5 
418 1 41.663 49.8802 26.1401 9.3183 -222188 140158 328598 -135404 -174993 39655.7 
364 1 43.3908 47.1438 20.8923 9.26257 -84080.4 -322389 -115195 -126916 149080 -198536 
419 1 44.767 49.8255 26.1377 9.08003 95902 108434 142842 40316.1 -139002 112896 
380 1 48.0757 49.838 20.8835 9.94778 448373 247847 460121 27281.7 146368 -45473.9 
368 1 46.5033 47.0925 20.999 9.82442 -242967 215372 280932 -138820 195243 86748.9 
372 1 49.6639 47.0353 21.0466 9.43819 -57202.3 101690 176873 187199 140233 61200.6 
305 1 43.2546 32.4685 23.5804 20.9199 397640 172704 132132 -120770 272370 -82181.5 
381 1 43.5581 30.7263 26.0932 96.0632 45806.7 -7174.6 -288482 -109863 -16647.8 254269 
387 1 44.93 33.457 26.1283 9.85353 733107 -43898.6 223172 -173835 87144.3 -271598 
3195 1 49.7477 30.9023 26.0341 42.0458 -132230 -781128 -540327 5468.92 -7991.67 -55879.3 
309 1 49.7305 32.4804 23.4507 14.969 -288449 -202908 180120 82093.9 -50231.2 26282 
307 1 46.6056 32.476 23.6285 14.9122 417866 -160931 34270.5 -217979 -84476.4 -83492.4 
382 1 46.635 30.7216 26.0796 38.5027 299176 -169429 -189243 -154342 -34953.7 275323 
389 1 48.0991 33.404 26.2183 9.3785 -119447 -867561 -565211 137331 -128111 -56852.7 
383 1 37.035 36.1973 26.0261 31.9959 -419928 -250099 -534572 143921 96150.5 -210591 
314 1 38.4779 35.2235 23.5636 33.3973 6879.38 -247150 98323.6 -130961 -20297.4 -246648 
384 1 40.1057 36.1966 26.0091 11.6311 -92043.2 -326528 -128728 -183888 2072.52 180740 