ITEM: TIMESTEP
60000
ITEM: NUMBER OF ATOMS
5538
ITEM: BOX BOUNDS pp pp pp
0.0372549 99.9627
0.137726 99.8623
-0.96397 100.964
ITEM: ATOMS id type x y z c_csym c_2[1] c_2[2] c_2[3] c_2[4] c_2[5] c_2[6] 
11 1 40.2585 30.8203 -0.0996141 100.784 -384251 -21730.1 -758511 -307441 -187857 -7710.8 
87 1 41.6366 31.5554 2.34216 51.8014 -70917.3 -120727 -855392 -218377 -188745 -128286 
1 1 43.3552 30.8692 -0.102932 32.766 -370123 -230884 -131577 -79322 -44884.6 -23324.9 
15 1 44.7481 31.7004 2.58777 16.8138 614608 -285370 538035 120523 163097 104780 
3 1 46.4728 30.9068 -0.0481172 34.917 -342341 -232507 569992 18767.1 -24904.3 74708.1 
19 1 48.0666 31.7798 2.69051 15.3983 867268 -233846 275849 130935 -103498 79461.1 
5 1 49.5866 31.0157 -0.119923 30.818 -146870 -252859 315658 -180368 -218578 80826.6 
1375 1 37.043 36.3902 -0.110796 20.4423 -505809 129001 -671307 -270266 -75456.4 -12817.8 
10 1 38.5898 33.4971 -0.0337674 34.4463 34996.3 508063 -105281 -461563 -92228.8 -144934 
6 1 38.3987 37.1689 2.63194 14.3679 483413 357118 179454 -90299.3 196571 131855 
8 1 40.0575 34.395 2.49067 22.05 98775.3 360344 -416518 -301713 -89727 417759 
9 1 40.1117 36.245 0.0919057 9.77054 256994 164800 148003 25897 27799.2 64620.3 
33 1 41.6656 37.0911 2.71078 9.3753 159185 53102.8 90150.2 -170885 167534 42149.9 
14 1 41.7015 33.5204 -0.0116487 9.52544 -96883.9 28353.3 -121497 -180607 -23892.9 59730.7 
18 1 44.8567 33.5172 -0.00901711 8.81341 -198382 167540 708997 43032.9 -30690 -60357.7 
12 1 43.1758 34.3131 2.63576 8.44668 274123 221349 330200 196353 -2514.6 161641 
13 1 43.2914 36.2426 -0.0601854 9.22151 197688 57712 655489 -53216.8 -16512.7 -43129.2 
37 1 44.7194 37.0393 2.70637 8.3292 88834.6 149235 512578 404543 -235297 33025.6 
22 1 47.9168 33.6371 0.0673655 8.87661 -108638 98743.4 525186 188243 -209385 58287.6 
16 1 46.3649 34.3827 2.69471 8.85848 452571 216228 276851 330041 -130091 -193300 
17 1 46.4656 36.2882 0.0458705 9.02458 293.902 -412942 359062 416802 -158402 -118325 
41 1 47.9994 37.1846 2.56826 9.83679 403456 320549 217782 -132316 -230574 -121326 
21 1 49.6924 36.2921 -0.0406556 9.76854 -182446 205104 -325677 14923.6 -198292 51337.4 
20 1 49.6948 34.4578 2.50913 9.41702 -31865.9 319511 -185380 73614.2 -65309.4 43874.8 
25 1 36.9521 39.9549 2.70411 14.9153 -47464 248184 343778 59855 -58892.6 -21589 
1396 1 35.5227 39.0956 0.020586 20.7069 -463348 -241534 -163143 40615.5 -83315.5 138508 
1392 1 33.8945 41.7112 -0.00582505 21.8695 -104176 -180973 -60377.3 -225657 176752 -104112 
7 1 38.563 39.0726 0.103988 9.48616 -159538 -81290.3 -63455.2 -154189 13505.6 32849.7 
29 1 40.0603 39.9507 2.70081 9.71976 432123 631818 316591 -96771.9 -87607.8 -151419 
36 1 41.7278 38.9701 0.0352464 9.73952 18802.2 143399 403241 -18198.9 -226364 51958.4 
34 1 43.2752 39.7774 2.68765 9.3914 165362 38854.1 17548.4 47211.9 -23317.7 -305051 
40 1 44.8816 38.9149 0.061853 9.38478 -412593 30653.6 437698 102428 -36356.6 -191478 
35 1 43.2291 41.6963 -0.054238 9.07596 -14729.1 25013.8 189256 -166885 106528 -3808.58 
42 1 49.6065 39.8423 2.66464 9.47117 143222 -166209 361599 185004 49632.6 -301119 
38 1 46.4125 39.9621 2.5911 9.04766 -164565 -128033 199301 93372 2341.93 -132236 
44 1 47.94 39.1367 -0.0651605 8.4091 5373.65 206843 -60122.5 -43151.7 49563.4 53856.6 
1418 1 32.252 44.4879 -0.175942 21.4497 -384516 390695 -114495 -46175.6 272466 -2211.16 
28 1 36.9756 41.8017 -0.0767809 9.63988 -222746 138277 83872.7 -226103 71496.8 -38198 
47 1 33.7453 45.3647 2.58603 13.5523 -222404 60227.2 582327 457352 -36762 23684.6 
23 1 35.2786 42.7203 2.63607 14.9166 14972.5 30179.2 381506 182873 -75550.8 -112277 
24 1 35.2261 44.4864 -0.0257098 9.11522 -227647 467961 -101505 -259127 78829.6 116015 
51 1 36.7921 45.5676 2.45904 9.13203 353639 -54956.5 -64774.2 126484 69854.5 207487 
32 1 40.0717 41.7891 0.0274827 9.71093 -170433 201200 179926 -118627 -92770 -152296 
26 1 38.3843 42.757 2.60952 9.06771 729470 566001 594450 -72813.5 73454 -338156 
27 1 38.4551 44.598 -0.0630477 9.4196 309387 -121352 92367.6 -80768.1 -27851.3 -117492 
55 1 40.0944 45.4742 2.5033 9.90575 227821 17333.9 -89620.2 67726.2 123648 -75922 
31 1 41.7186 44.5444 -0.00074085 9.64548 -54775.8 24060.9 -204941 -35225.9 154015 -165007 
30 1 41.672 42.6436 2.59597 9.67258 566653 363876 236111 -68091.6 -182124 -137847 
59 1 43.2692 45.4844 2.61327 8.85878 -163736 100601 -14253.8 -160618 -136345 263012 
63 1 44.9084 42.631 2.58963 9.05983 75082.2 67397.9 148976 173853 217586 -107755 
66 1 44.8212 44.4213 -0.0579973 9.19075 -184844 -64080.1 332542 177084 -60257.2 106434 
39 1 46.4109 41.8002 -0.0132624 8.47872 -518712 -448171 -380804 455563 -146611 40850 
43 1 49.5182 41.899 0.0143602 9.03363 -50023.6 102591 107707 -6461.21 3089.13 -70286.4 
67 1 47.9897 42.5937 2.57829 9.2583 -362195 64133.8 -194807 -37297.9 -27853.9 -220418 
64 1 46.4035 45.4269 2.64941 9.47196 77560 26077.5 209510 61006.7 52358.6 -46280.5 
70 1 47.9841 44.5603 -0.0594073 9.60623 38274.3 -86157.5 458130 205734 -66474.2 -89392.6 
68 1 49.6227 45.4249 2.60941 9.43937 398732 -40308 331150 263361 26927.3 -193318 
45 1 32.2907 48.064 2.55333 15.8923 -141382 326446 518533 327862 229099 -139819 
1414 1 30.685 47.1204 -0.117453 59.9044 -194420 389529 129443 40411.2 14081.4 163110 
50 1 33.7038 47.4237 -0.0713446 8.7179 -76904.8 841421 -291614 -254460 399045 -69969.7 
48 1 35.3128 48.2714 2.54683 9.79056 60057.5 -14513.4 383385 402457 65509.1 -118115 
54 1 36.8532 47.2593 -0.00729357 9.62784 101161 -137861 -460463 66475.9 89999.7 387175 
52 1 38.5384 48.1886 2.56291 8.99388 37361.1 -215762 175415 -121254 -17257.8 27951.2 
58 1 40.0677 47.2551 0.00115974 9.39071 -117185 -525213 20022.7 -315925 137420 231573 
56 1 41.6778 48.2223 2.65428 9.2429 -187550 -490563 -46121.7 -147186 171276 83593.9 
225 1 38.4915 49.929 10.4155 9.06457 38544.5 -147269 272331 43069.5 -117435 38112.3 
62 1 43.2319 47.2813 0.0776423 8.97522 -65621.8 -348152 91623.6 96813.9 -5536.32 91540.3 
60 1 44.8996 48.118 2.64029 9.06487 -34741.6 -532547 -186974 -66261.8 27736.5 -209266 
69 1 49.6703 47.3065 -0.0601029 9.33752 53647.7 -217961 149735 54312.4 168421 16918.6 
65 1 46.389 47.2932 0.027692 8.99739 284091 317601 189355 60265.5 -134658 -88518.7 
76 1 48.0743 48.1336 2.49004 9.71893 64309.2 -125659 143201 250623 -83698.9 -134925 
77 1 43.5616 32.5429 8.2432 35.721 -574501 143395 -340928 -444893 -216070 -255723 
4 1 49.6252 30.738 5.14541 30.0136 423994 166220 410840 21040.3 -182693 -53390.6 
2 1 46.5038 30.9273 5.23702 31.8013 -151976 -158050 165303 -141164 196181 -78672.9 
78 1 48.0711 29.9697 7.81559 44.9559 3535.9 -157424 198288 -283521 -15222.9 -150588 
79 1 46.4997 32.7214 7.80659 12.6718 -654194 -7765.55 321581 -53097.1 -56791 13730.3 
81 1 49.6626 32.589 7.82252 9.26776 210774 520629 635454 -185661 172181 241830 
82 1 36.935 36.4361 5.22208 52.9214 206085 66826.9 -199715 -425174 182472 -11208.3 
84 1 40.1251 36.1981 5.20324 17.5864 475876 75779.2 435221 -271559 179891 139997 
86 1 38.5617 35.4549 7.82683 36.404 340952 7378.56 559036 -188336 182050 -2432.66 
90 1 41.7629 35.2317 8.04044 12.7046 361548 450344 -158478 -529243 149762 -174438 
91 1 44.7401 33.455 5.3493 16.6563 324092 198194 610773 220614 -242598 173868 
88 1 43.2828 36.2325 5.47376 8.8585 86017.9 -313454 41347.2 145782 129949 -264421 
94 1 44.9487 35.2842 7.99213 8.88933 -139918 -56518.9 121096 346644 -195531 -193849 
95 1 48.0615 33.5798 5.18088 0.219132 497402 112106 -149431 16562.8 -128939 -271903 
92 1 46.4344 36.2157 5.23887 0.126498 52555.8 42575.8 -30871.8 319237 -327987 22668.1 
96 1 49.6672 36.3157 5.11748 0.325108 -215054 -427039 129992 -168110 89562.3 139694 
98 1 48.0985 35.432 7.67758 9.80641 5516.5 179414 306259 -55600.7 -127616 -148431 
83 1 36.7547 38.0401 7.97323 16.2166 512040 753929 753397 -249174 98736.4 -371399 
101 1 35.3089 39.2489 5.29586 34.2082 -130026 -18397.1 36080.2 -334845 85506.9 -67146.1 
104 1 35.2849 40.94 7.92498 15.0506 -177756 344612 372631 -106738 -48083.7 -123896 
99 1 33.7932 41.978 5.3247 42.8707 -162925 -438676 -167562 92075.6 32340 43223.5 
85 1 40.1401 38.0685 7.90214 9.68053 459232 736828 174304 -226520 36758.6 34707.8 
105 1 38.435 39.0579 5.29146 0.218966 402442 -40636.1 149751 -285446 -240744 -178019 
108 1 38.3762 40.8181 7.81684 8.73306 625757 564507 -316212 326057 101964 -54636.6 
109 1 41.6995 38.8828 5.31077 0.253483 166312 -133855 19554.9 22318.6 141916 -36670.1 
112 1 41.8394 40.8057 7.86348 8.88875 112493 -218859 180888 -267091 8144.83 -13454.4 
89 1 43.2599 37.9675 7.91346 9.57401 42795.6 19243.4 -249489 226446 -50467.7 -358236 
113 1 44.8776 38.9418 5.29406 0.146532 -218706 -225739 218946 100751 -142789 -7657.72 
116 1 44.8976 40.7871 7.8906 9.21875 -717040 -545771 66839.7 16343.2 204082 -6144.35 
110 1 43.2193 41.6132 5.15561 0.513357 -43982.3 -128224 -25092.2 -18157.9 97575.5 -88731.2 
93 1 46.458 38.1229 7.87531 8.98241 24810.9 14594.8 22784.3 93903.8 -3031.82 90105.1 
117 1 47.9837 38.9139 5.23693 0.210623 -244604 -233957 58867.2 44310.6 124980 18473.1 
120 1 48.0107 40.8401 7.82485 8.95566 -550437 -218014 26947.3 -58655.9 -227704 22446.1 
97 1 49.6312 38.0726 7.83054 9.21804 65748.8 -275398 319502 -258540 -11037.9 -29126.5 
114 1 46.4462 41.6313 5.31551 0.423575 -62275.8 -311227 -52185.8 -227557 -49273.3 -13843.2 
118 1 49.5937 41.639 5.11785 0.398601 149432 52502.6 -93152.3 269661 -267725 -28553.9 
123 1 32.3201 44.647 5.38122 41.3509 -401110 -320747 -187516 122618 22232.2 -93595.5 
102 1 36.906 41.7993 5.34235 0.33052 -8184.47 -206700 -242198 -170052 -278242 -158101 
100 1 33.7745 43.6451 7.99493 15.6089 -95112.1 -52079.6 413545 31614.3 -211881 -271485 
103 1 36.9416 43.6511 7.80532 9.41344 495500 4329.27 322169 273708 2352.08 -107829 
127 1 35.3426 44.6276 5.18017 0.302986 -133160 155426 429448 -82817.6 -224491 -190852 
106 1 40.0981 41.6724 5.31576 0.334294 9455.83 -170403 -39019.3 -275989 148331 -425835 
107 1 40.1058 43.5415 7.73314 9.84072 70627.3 468534 -45894.3 152269 217055 -226774 
131 1 38.4952 44.5424 5.15207 0.162309 98268.9 324437 319804 -124317 107723 -138875 
135 1 41.6669 44.4256 5.18046 0.224243 -154343 353548 285133 -12924.9 191797 49962.2 
111 1 43.2373 43.4701 7.83804 9.93184 -582980 -374188 553369 -220921 76399.2 159.32 
139 1 44.7686 44.4048 5.17352 0.344701 149968 417112 236669 -67503.6 25382.9 -9390.88 
115 1 46.3029 43.448 7.88037 8.58857 -41274.5 -693285 184923 61406.1 94116.2 -43320.4 
119 1 49.5733 43.4935 7.85876 9.81762 280613 -417781 275154 196810 -194319 184935 
143 1 48.0096 44.3063 5.24941 0.341457 159880 -69555.9 130739 11112.7 -94476 -303519 
218 1 44.8664 46.2681 13.0654 9.65948 176687 53670.4 20364.7 227822 73338.5 -77924.2 
121 1 30.8524 47.3997 5.39778 47.7809 -542400 -423100 71830.2 -98724.7 -39860.3 148751 
126 1 32.3132 46.3864 7.9812 15.5191 17560.3 593963 263931 -262097 -202897 -196236 
122 1 30.667 49.2546 7.86905 31.2065 -8928.13 242605 519668 -435481 6668.44 -110600 
125 1 33.8125 49.1748 7.86369 9.66676 167534 -46793.6 568231 -23583.1 45079.6 -89875.6 
124 1 33.8077 47.3821 5.2591 0.309309 -344758 510209 586258 84339.8 -104878 9931.45 
128 1 36.9538 47.3281 5.23506 0.218093 -49310.6 54598.5 379502 -283207 74209.9 -85784.8 
129 1 36.889 49.131 7.73987 9.76772 -73362.6 -358869 32264.3 -174735 119386 -129786 
130 1 35.3927 46.3428 7.86975 9.28931 325407 186875 302968 178686 62880.3 -36640.2 
212 1 43.3055 47.1459 10.5426 9.05073 53879 -407142 -413044 52605.7 -287294 -245471 
132 1 40.0994 47.2612 5.1592 0.244675 -57442.6 331232 175431 -44712 177685 69465.6 
133 1 40.2327 49.1345 7.73548 9.34167 501145 -144171 393403 -109793 79487.8 46122.5 
134 1 38.6267 46.3758 7.82913 9.40634 440352 359450 92532.7 -169322 -211344 -58167.7 
138 1 41.9186 46.3552 7.90064 8.22893 13855.2 480950 19699.6 159458 202194 85923.4 
220 1 49.6241 47.1911 10.4898 9.19151 -135642 185290 449261 222359 -22750.6 74245.4 
136 1 43.2545 47.2957 5.25554 0.347014 -3333.66 316593 165643 -47071.1 190749 69013.9 
137 1 43.4453 49.1609 7.86806 8.29963 47789.3 13933.5 370065 -238665 -84106.3 -122245 
142 1 44.9441 46.1973 7.92034 9.15859 -539278 60471.2 524988 102583 18677.2 127297 
217 1 46.5288 49.0926 13.177 9.10678 326475 -16883.9 243286 44016 108731 -35555.4 
140 1 46.4403 47.1348 5.21704 0.1146 -55647 346733 238485 25844.1 -187333 -149761 
141 1 46.563 48.9603 7.91241 9.10788 -38588.5 169171 164765 -145159 -56048.2 -3012.3 
144 1 49.5334 47.1341 5.2202 0.448168 210732 211465 261183 124407 108347 -128055 
145 1 49.7278 48.9669 7.85468 9.06826 -164685 159194 416928 247391 89183.6 32118 
146 1 48.0568 46.1108 7.78131 8.65654 -142741 103504 227957 330511 83002.1 1339.31 
153 1 43.3732 32.7661 13.2133 17.8212 188231 -124108 -12857.4 -455897 46765.4 13834 
157 1 49.8107 32.5341 12.9753 12.6739 56607.3 39576.3 -297647 -256917 -6720.75 266441 
155 1 46.6272 32.6163 13.1391 13.3311 691807 -15981.1 361470 -244690 -227524 33660.6 
154 1 46.6218 31.0123 10.3918 36.7241 -413241 -294643 135652 -94808.2 119386 69622.7 
156 1 49.6069 30.9232 10.3317 20.2832 -578034 -447414 -325830 32377.4 -43768.8 235103 
158 1 37.149 36.2642 10.6785 40.6107 -288530 -376514 205968 -304590 -28432.7 -17559.1 
160 1 40.1602 36.2451 10.5516 12.3196 -308893 -280946 179968 -80432.7 -2375.73 178291 
162 1 38.6675 35.4342 13.2161 30.2848 -392283 -28097.9 -240434 -125316 75363.1 -38808.1 
166 1 41.7151 35.4769 13.102 10.5594 -141813 277004 172321 -176863 -62699.3 29371.5 
163 1 41.7537 33.4798 10.6099 33.7869 214764 -113284 -45584.1 -77830.8 29560.3 169387 
167 1 44.9411 33.554 10.6608 12.2328 208249 -799791 -610252 85243.1 -263963 -155840 
164 1 43.3337 36.1702 10.5348 9.11511 -302055 -105698 -190255 188641 131644 -86154.6 
170 1 44.9736 35.3191 13.1554 9.02027 -137711 -101883 -186756 -382658 7648.55 -208451 
171 1 48.1452 33.6275 10.4066 8.94514 473067 -362591 579014 -81800.4 84111.8 -136227 
168 1 46.4664 36.2523 10.5208 9.04172 -103930 -316704 69692.3 217519 -164210 -123780 
174 1 48.066 35.3177 13.1019 8.9326 -181632 293530 -74519.3 -28620.5 127744 237393 
172 1 49.6748 36.2944 10.5182 9.47405 248757 -408242 426592 -285586 34967.2 120733 
177 1 35.452 39.0439 10.5321 22.6366 -324146 87184.3 -310262 -83611.3 178723 -75438 
159 1 36.8783 38.0597 13.1446 14.2498 167910 -55864.5 220282 71020.5 32305.4 -31735.6 
180 1 35.4338 40.7571 13.2034 15.3541 -29872.8 -34207 732614 -79677 -234088 -4074.11 
175 1 33.8392 41.7664 10.6394 34.2225 60581.8 -79651.8 -200976 -23904.6 54540.6 -198506 
161 1 40.0814 38.1547 13.1083 8.21335 363433 -441084 491628 219775 -29285.3 44691.9 
184 1 38.5564 40.7725 13.114 9.557 -94363.1 182900 613678 384733 9287.54 38757.2 
181 1 38.523 38.9148 10.4575 9.1526 19714.4 9995.92 357465 -33220.8 -328.504 11279.9 
188 1 41.6615 40.802 13.1312 8.78456 -445078 -305199 567943 107502 89900.5 72420.7 
185 1 41.6817 38.8856 10.4651 8.72328 -331252 -15099.7 -241479 -732.638 -202600 89709.8 
192 1 44.8622 40.8276 13.2387 9.5104 178711 -108157 409226 -64715.1 -16491.5 154185 
165 1 43.2793 38.1308 12.9994 9.23425 352162 50825.9 69874.9 -231983 58467.6 76835.5 
189 1 44.8649 38.9229 10.4972 9.58843 -157789 -100413 6400.53 259210 192306 91782.9 
186 1 43.3352 41.5981 10.541 8.48232 128337 228361 141823 27601.9 -43837.6 -184767 
169 1 46.5368 38.0095 13.107 9.4551 389653 194486 244485 -91866.4 87208.8 5553.62 
196 1 48.0734 40.8241 13.1664 9.10043 66695.5 -368325 162416 412482 -83907.8 21769.6 
173 1 49.728 38.0886 13.2007 9.69392 273607 127053 119880 132349 11218.9 -126009 
193 1 48.0355 38.9908 10.4959 9.58023 -9683.47 -51102.2 503822 30011.7 16806.4 -19981.4 
190 1 46.5307 41.6927 10.4785 8.71539 -101659 -204499 266290 62228.2 -26730.2 -47858.7 
199 1 32.2998 44.5284 10.5929 24.2856 -280351 -79417.5 -14139.8 -179761 171906 29842.1 
178 1 36.9733 41.7376 10.4455 9.02062 471858 182330 274195 28180.7 17422.3 -318739 
176 1 33.7215 43.4411 13.1995 14.9762 194744 311158 577334 -259918 -139797 -363625 
203 1 35.3506 44.4791 10.5049 9.47103 87634.8 -138635 -49640 243058 -413326 -191320 
179 1 36.9011 43.5054 13.017 9.72702 639221 -6823.21 124798 -30749.8 -161344 -171531 
182 1 40.1639 41.6833 10.4563 9.40569 222176 23356.4 443568 -3669.9 50459.1 -65540.4 
183 1 40.1567 43.4763 13.0392 9.29947 62866.7 -405892 -23227.7 31305 -105146 -146809 
207 1 38.609 44.4143 10.4204 9.01526 -106739 -51392.4 155743 -102659 -21447.3 -139521 
211 1 41.665 44.4333 10.4249 8.79849 -439298 3512.86 136391 -169835 120546 -18344.3 
187 1 43.3144 43.5111 13.0849 9.95163 323479 101404 401618 -45111.2 114519 -106633 
215 1 44.8368 44.4384 10.4797 8.95491 164226 119384 -6775.4 199111 241780 63007.7 
194 1 49.6658 41.6878 10.4749 9.34782 53700.7 92158.7 313894 12002 -13017.3 85714.2 
191 1 46.61 43.41 13.2107 9.28914 74608.1 -371970 20021.1 44581 151861 -30607.5 
195 1 49.7699 43.5601 13.0498 8.91073 -34133.2 15892.4 145513 741.704 -189693 -88282.8 
219 1 48.0241 44.4013 10.5703 9.34656 108821 -111812 439242 55113.7 46969.3 81194.8 
213 1 43.2354 48.8762 13.0738 9.16969 286266 -221414 -747385 219291 17476.3 55820.9 
202 1 32.1809 46.3606 13.223 14.923 -127665 460901 1.03318e+06 -281298 1301.19 -11345.6 
198 1 30.685 49.081 13.3167 30.6952 -507339 40477.8 865658 -131584 -19963 21818.1 
197 1 30.6926 47.3818 10.5025 41.3034 62162.9 491518 703599 -141035 125145 -10589.3 
222 1 48.0519 46.2738 13.2131 10.0414 411544 402514 41948.5 13255.6 -15325 -134937 
206 1 35.2229 46.1895 13.1165 8.15126 247040 330575 -65456.7 192459 -93486 32938.2 
201 1 33.7091 49.0983 13.2258 8.76364 -109971 352197 532740 -78745.1 -83503.3 63312.5 
200 1 33.8187 47.1828 10.5225 9.05998 9342.14 206429 267885 11085.1 -327107 -72066.8 
205 1 36.833 48.998 13.1787 8.52724 -83651.9 382365 63246.8 -37985.1 -85242.9 -77598.3 
204 1 36.9007 47.2409 10.4821 10.1336 38448.9 164128 422393 -58303.3 -154293 18598.2 
216 1 46.5836 47.1877 10.4817 9.48029 -79634.4 137257 379694 -23166.3 -42892.2 222031 
209 1 39.9439 48.9683 13.0403 8.53691 188593 86412.4 131189 -56231.1 85501.3 -62450.1 
210 1 38.4999 46.1852 12.9801 9.52831 82565.3 -39931 304684 -110281 -30909.2 13653.7 
208 1 40.1247 47.2154 10.3417 10.0458 97352 69641.2 -133995 -65888.9 -215667 -177040 
214 1 41.5837 46.2226 13.0018 9.15228 -150828 -225313 -26418.8 -326123 -25643.1 51863.4 
221 1 49.6865 49.0854 13.0878 9.57247 274919 426535 371818 -190210 -65162.9 -71493.1 
151 1 44.8927 49.9734 5.16607 0.203976 -206349 13256.3 92301.9 -80774.6 4594.47 -95628.3 
228 1 48.0964 49.9592 10.423 9.76307 228159 -264850 210674 51462.5 -157119 -27772.4 
226 1 41.7437 49.9023 10.5359 9.25389 -58839.2 114700 154948 9064.95 -69694.6 -146740 
152 1 48.0367 49.9133 5.22436 0.180229 130846 368178 454499 210408 -7930.44 -138109 
227 1 44.844 49.8961 10.5391 8.91543 -28883.6 20363.2 57783 -37237.1 -102954 -188173 
224 1 35.3584 49.991 10.4971 8.99323 -45749.8 71640.3 641786 21173.9 -24972.6 -77318.6 
57 1 41.6117 49.8718 -0.0872633 9.6048 66911 39001.6 554930 -47137.7 -9946.74 166369 
230 1 43.4931 30.8311 15.5791 101.714 -803877 -128842 -376319 -105926 -51689.2 233384 
229 1 43.4253 32.4689 18.3245 19.8912 399157 419088 955452 -339997 37245.1 177945 
232 1 46.4214 30.8812 15.6043 38.1092 -971751 61145.4 -230865 128149 55800.5 171887 
231 1 46.6403 32.5629 18.2305 14.169 54012.4 15419.7 522565 62498 62232.8 165154 
233 1 49.7156 32.493 18.3186 14.0638 -193579 547895 777445 177010 222517 -84171.2 
3049 1 49.3639 30.9409 15.4642 57.0332 -646503 -495282 -342995 -248373 163840 270889 
234 1 37.3022 36.4256 15.7299 26.6076 -560717 -604278 -73918.2 -229410 120463 -93561.5 
236 1 40.2445 36.3586 15.779 11.109 -926482 -147601 147215 -189025 54179.6 -173563 
242 1 41.8126 35.3033 18.3793 12.1255 158138 283711 708550 -300872 88521.4 -74273 
238 1 38.6945 35.2578 18.3054 32.9446 -55605.1 63001.3 424765 -212458 67646.5 -16821.3 
239 1 41.699 33.5272 15.7197 21.746 565611 543195 579339 -336504 204772 -142712 
243 1 44.9002 33.5741 15.7581 8.61868 639903 -276740 -181277 -46052.4 -252414 -172337 
240 1 43.3243 36.2738 15.71 9.84823 -118960 143437 484603 256084 5340.43 -139399 
246 1 44.9955 35.2111 18.3121 8.78095 389472 378628 -284536 -10042.3 -131811 -114086 
247 1 48.1358 33.6823 15.6756 7.99473 264463 -360242 -280587 308251 -27003.9 -58032.7 
244 1 46.5223 36.265 15.7529 8.9513 64503.1 -474786 -21271.3 189438 23494.8 -44050 
248 1 49.827 36.264 15.7878 9.12276 177186 95639.8 27449.9 -287713 221050 91823.5 
250 1 48.214 35.281 18.294 9.35204 144200 168696 -223070 -184253 90197.5 -166817 
253 1 35.3611 38.9406 15.7738 26.2309 -13329.1 -208519 -101945 -70754 52691.6 64922.8 
256 1 35.4009 40.6625 18.4378 14.9415 -260224 165670 485526 -121424 -243131 63759.2 
235 1 36.9998 38.0139 18.3976 14.8733 94709.2 114575 476666 -331056 -59687.3 6762.29 
254 1 36.8977 41.6377 15.8021 9.62355 290431 -65220.7 303425 176342 -166402 -144746 
257 1 38.5184 39.0463 15.8177 9.1196 137723 -1.15217e+06 288837 -367556 90908.8 -39936.1 
237 1 40.1435 37.9809 18.4078 9.09072 171488 116961 80919.5 63802.4 156531 -172619 
260 1 38.4982 40.7121 18.4241 9.39032 96021.9 232662 -18940.2 -25852 61305.6 -140146 
261 1 41.7131 38.9639 15.7967 9.7268 -69091.1 -711794 266287 62871.9 57033.4 -154952 
264 1 41.6838 40.7316 18.3197 9.82087 -22488.2 69958.9 -220959 -17983.3 5282.27 15159.7 
265 1 44.8596 38.9568 15.7837 9.59933 272405 -37549.3 374357 187708 -82753.1 141634 
268 1 44.9097 40.7204 18.4531 9.84883 49166.7 44241.1 194963 28698 -185805 -23904.4 
241 1 43.3163 37.9704 18.4527 9.34731 223517 221384 467538 -195439 63889.5 65918.3 
269 1 48.1514 38.9718 15.7546 9.50825 92443.2 -68576.5 191624 -146495 219102 22179.3 
272 1 48.0655 40.7917 18.4215 8.83054 -68259 140770 -228652 -40795.7 -140532 -53566.1 
249 1 49.7343 37.9961 18.4217 9.68668 48678.5 -69743.8 132886 -146522 47012.5 -309693 
245 1 46.533 38.0377 18.3316 9.68473 203737 168675 83844.1 22997.5 -32319.6 28988.4 
270 1 49.7609 41.6099 15.6928 8.94591 -215087 -273162 278317 -104576 -21493.8 -119660 
266 1 46.599 41.7071 15.8399 8.99706 60550.5 -626919 -166303 -2652.14 -96534.9 76721.4 
275 1 32.3129 44.5679 15.8453 31.5007 -415735 -113329 -247709 -32235.9 36294.2 -145114 
251 1 33.7862 41.6441 15.993 23.6012 19031.7 -103168 -112734 5758.11 -203233 -340760 
279 1 35.3211 44.3811 15.7135 9.51774 -438557 44579.1 190253 114976 -153390 42340.4 
252 1 33.7861 43.4552 18.366 15.1466 -164918 277906 -16781.7 -219951 -107864 -430956 
255 1 36.8616 43.4687 18.3585 9.37534 201066 164663 267922 52404.5 42289.6 -150332 
258 1 40.1222 41.609 15.824 9.50219 84170.4 -224018 267449 -74696.8 -151091 92429.1 
283 1 38.4263 44.3712 15.6143 9.41593 -106816 38001.4 592070 36288.2 -11060.7 -48107.5 
259 1 40.0791 43.4835 18.4441 9.73342 -24039.5 -273214 145536 71159.3 134625 -64130.7 
287 1 41.6101 44.4518 15.6454 9.12104 213124 -161641 284502 -126138 -83199.8 -148644 
262 1 43.3194 41.6694 15.8436 9.75352 249003 -190198 -127262 -58519.4 303466 -268180 
291 1 44.9211 44.3598 15.7321 9.71961 228598 -86337.7 200978 -1596.19 119413 -143888 
263 1 43.2577 43.458 18.2967 9.61482 160296 -146284 86202 -58204.3 69077.8 -305206 
295 1 48.0899 44.3195 15.7846 8.46507 -121356 -106397 90383.1 -355752 -217396 107667 
271 1 49.6889 43.5112 18.3438 9.25947 -172982 -290057 264334 79419.9 -181082 206673 
267 1 46.4781 43.5083 18.3872 8.6653 32959.7 -37885.4 -277438 88977.4 289654 -85464.6 
273 1 30.8522 47.3272 15.979 37.5216 -357194 -397613 -457916 155826 -227126 -10214 
278 1 32.2333 46.2631 18.3795 15.0943 -93406.3 337429 -421253 -318990 -475649 88179.9 
274 1 30.7319 49.1327 18.4104 31.5085 129747 185516 127770 -346558 127946 -144413 
380 1 48.0887 49.844 21.0165 10.4018 -322239 16024 357597 24795.9 153261 18893.7 
276 1 33.8689 47.1913 15.7778 8.49704 -244450 23635.2 -198587 19927.2 -1809.79 -159402 
280 1 36.9374 47.0608 15.6671 9.53831 -473845 -295428 225721 -45711.5 -19696 131278 
277 1 33.9316 48.8728 18.3583 8.53201 269399 -28386.6 -45588.8 35855 -150375 -120859 
281 1 36.9706 48.832 18.3654 8.92784 -353352 216841 232678 -25673.2 21772.7 -122674 
282 1 35.3595 46.2059 18.3421 9.17153 -96051.5 -604607 215737 382713 82328.6 -12071.1 
376 1 35.386 49.6884 20.9633 8.51366 -240443 325932 124866 168762 17209 -97570.1 
284 1 40.0322 47.0957 15.7365 9.78845 -371768 -401809 346326 290337 10416.1 69459.3 
286 1 38.4819 46.1223 18.3136 9.01925 -166721 -344480 140985 170230 120137 235168 
285 1 40.1295 48.958 18.3376 9.14891 -97811.4 56219.7 142269 -89871.2 -88171.7 -73551.1 
290 1 41.6461 46.1583 18.3171 9.81297 76021.8 173360 308558 -56931.8 -220654 -124600 
418 1 41.8111 49.9357 26.1917 8.55133 -154574 75693.9 -41945.6 -124106 -29860.8 225506 
288 1 43.2214 47.062 15.561 9.33716 147527 -205738 65055.2 8123.06 52754.4 227090 
294 1 44.8154 46.2498 18.2384 9.09493 236212 -107763 73296 -6678.33 245932 -162961 
289 1 43.313 48.9632 18.3107 9.3273 -229097 -261409 418765 454858 13679.1 88421.9 
369 1 46.3618 48.8701 23.4093 8.93558 -175825 -73293.5 -179533 275775 -84336.1 328273 
374 1 47.8907 46.2024 23.5253 8.20171 287758 -70195.4 -174364 230994 173636 -251286 
292 1 46.4881 47.1737 15.7412 10.0351 52525 23646.4 -136221 -4236.01 387650 -262975 
296 1 49.6335 47.1568 15.7673 9.45171 -62346.4 285484 275848 -33574.5 -285103 -160940 
293 1 46.4607 48.9412 18.2623 9.84747 147581 3505.94 -31097.1 -140562 214508 -79240.7 
297 1 49.7077 49.0111 18.3133 9.14468 159143 -20447.5 72669.6 -99904.6 -194821 -86987.2 
298 1 48.1595 46.1623 18.5028 9.76449 95903.4 -46749.5 -143431 114983 276555 -272338 
3195 1 49.7875 30.6886 26.2657 48.8909 -469501 -317537 -26879.7 198165 -2690.57 -137254 
319 1 45.0395 33.462 20.8598 11.2622 458158 -112691 383723 -230853 -198720 119939 
306 1 46.7276 30.8045 20.7758 61.0606 521478 -92626.4 -56003.1 -74699.4 -15270.4 165677 
302 1 41.6724 49.7976 15.6296 9.41162 86759.8 109986 197901 130538 168851 -50970.1 
309 1 49.6369 32.4557 23.5516 11.5914 -186085 -153359 419351 -16969.4 -94038.6 -324955 
310 1 37.175 36.1386 20.8851 42.6148 -85811.3 -53784.9 252496 -272578 -27831.4 140353 
312 1 40.2458 36.1426 21.0279 12.0267 79196.5 -200873 291498 21190.6 191534 44789 
315 1 41.9268 33.4716 21.0388 29.9437 210341 73657.8 327986 68431 -33976.8 -13887 
316 1 43.425 36.2443 21.1117 8.83286 77659.5 219904 -26240.6 211326 -94045.5 113698 
323 1 48.2266 33.4538 20.9102 8.3286 1767.15 -408232 100039 -90665.3 22488.5 -100455 
324 1 49.7362 36.1 20.9899 9.55924 -191876 -456023 -202037 81924 -117295 -268090 
320 1 46.5425 36.11 20.8643 9.71486 -70590.3 92261.4 313657 -185331 -121275 35786.2 
329 1 35.3998 38.9374 21.1631 30.2907 172628 160557 194512 -296946 -29939 20427 
330 1 36.9499 41.5703 21.035 9.13929 353261 -1937.77 203300 187022 -183805 -178794 
333 1 38.56 38.8152 21.0223 9.20372 317424 -137409 120913 6443.65 -59656.1 -219526 
337 1 41.7191 38.8702 21.1051 9.96706 151241 -7982.68 127120 95773.7 61653.7 -33712.2 
334 1 40.1121 41.5965 20.9926 9.57938 -215847 -60077.3 204395 23493.7 -61461.4 -58563.5 
341 1 44.9666 38.9333 21.0793 9.31286 283838 -205066 -49898.4 -263448 -88406.6 60382.4 
338 1 43.2196 41.646 21.0326 9.70657 28600 -204154 344219 108490 96549.3 -135228 
345 1 48.167 38.8301 20.955 8.87613 -93772.8 -115732 -343061 181467 -174543 16642.1 
342 1 46.5439 41.5932 20.9466 8.78496 93331.7 -225866 -359143 -53670.5 90232.2 -180753 
346 1 49.7383 41.6212 20.9167 9.44955 173672 40796.1 -68579.7 76711.8 -177847 -102758 
351 1 32.239 44.4147 20.9776 25.1721 -221659 -362614 234531 -241294 35481.5 -54407.7 
327 1 33.7469 41.6626 21.0558 25.142 81754.7 -365152 198321 -167859 17946.8 -196845 
355 1 35.3387 44.2691 20.9834 9.00684 79738.2 7559.03 70953.1 166136 -79009.7 -67898.1 
359 1 38.5199 44.3749 20.9363 9.38015 69939.1 -360833 77513.4 71622.9 306490 -85126.4 
363 1 41.7271 44.2873 21.0068 8.93394 192934 -355249 36276 56152 -197679 -151809 
367 1 44.9656 44.2875 20.894 8.60117 79137.8 116256 71988.4 107379 196562 -109374 
371 1 48.1285 44.3951 21.0711 9.42525 -154756 -377940 -362144 41628.5 -145709 165461 
349 1 30.7855 47.2976 21.0431 32.8612 -324689 -48816.3 225674 -87665.1 -117026 -57842.1 
375 1 32.3475 49.8855 21.0176 12.5221 -418789 166458 74449.3 -248602 65194 273184 
419 1 44.8896 49.8996 26.2243 9.25651 -552802 -81033.4 220480 11887.9 -43000.4 284974 
352 1 33.8192 46.9885 20.9347 8.47375 -145856 -102085 -69246.7 -234625 -128591 55778 
356 1 36.9788 47.0174 21.0062 8.78743 -422264 -311013 140660 397697 -16836.3 199489 
378 1 41.6788 49.8069 20.9126 9.11934 259735 170802 -34354.9 -148732 -95339 42153.8 
410 1 43.3618 47.0874 26.1893 9.57852 -139043 294643 491195 35398 56471.5 46696.7 
360 1 40.0428 47.097 20.9995 9.66734 -11401.2 81313.6 476437 -191895 -152851 30823.3 
373 1 49.7045 49.0052 23.5998 9.06575 -90744.1 181557 -335297 136718 211681 32331.7 
364 1 43.3235 47.0178 20.9012 9.52057 468475 355845 134470 -33208.2 -12983.3 -96767 
368 1 46.5202 47.0709 20.8317 8.96644 -258493 -224252 -273515 254106 172882 -204998 
372 1 49.6632 47.1257 20.9757 9.89902 -394992 -155534 62082 -82044.4 -377085 -102810 
414 1 49.6045 47.1263 26.1643 9.96996 -119749 -61204.9 -25977 -44219.1 176831 144290 
305 1 43.4026 32.4599 23.6214 22.814 -42798.9 149340 845702 -105647 63210.8 -278731 
381 1 43.7158 30.76 26.4025 92.3898 100137 -218570 57659.4 158405 96146.7 -114076 
385 1 42.0786 33.4107 26.2699 22.7579 219047 -62302.7 421393 -270922 29223.2 -3901.26 
387 1 45.1814 33.4055 26.2311 7.1234 116269 -100943 292657 -163607 -79093.6 -20177.4 
307 1 46.4996 32.4864 23.5439 12.1854 65788.6 -38102.5 1.01083e+06 -293824 -52178.9 -127717 
382 1 46.7964 30.6735 26.1761 48.7569 -167268 -349260 -97632.8 -258701 32504.8 -172132 
412 1 46.4639 47.1405 26.0874 9.17745 -403949 236484 46883.2 80992.3 128859 -39618.4 
383 1 37.2555 36.1839 26.3171 37.6829 -327365 -734249 -379655 4635.51 -417938 297615 
314 1 38.6516 35.2135 23.5475 34.0864 -30708.1 -93776.9 728361 -171776 83423.5 124262 
384 1 40.3367 36.1411 26.2464 10.6963 -43226.7 -115679 113215 20296.9 96730.4 247989 
318 1 41.7727 35.1929 23.6516 11.7019 -155504 243740 122671 -69910.4 69521.5 20405.8 
322 1 44.8995 35.2006 23.6019 7.84772 -147059 217779 370695 42879.5 -196836 193562 