ITEM: TIMESTEP
0
ITEM: NUMBER OF ATOMS
5538
ITEM: BOX BOUNDS pp pp pp
0.0372549 99.9627
0.137726 99.8623
-0.66001 100.66
ITEM: ATOMS id type x y z c_csym c_2[1] c_2[2] c_2[3] c_2[4] c_2[5] c_2[6] 
11 1 40.4389 30.7926 0.297583 110.179 -94335.5 184449 150016 -306913 -89037.5 42977.1 
87 1 42.0252 31.7163 2.77096 51.2433 195766 -230350 -439114 -108228 45538.9 93902.2 
1 1 43.5789 30.894 0.2066 31.8751 -70573.2 -334070 16617.4 137476 -243036 -37748.6 
15 1 45.1783 31.7099 2.77197 15.717 465167 -224216 50468.9 -166905 280266 73265.5 
3 1 46.7416 30.9134 0.196286 32.4558 51396.5 -263829 -354718 -79154.7 -182468 64847.3 
19 1 48.4262 31.658 2.79653 13.5405 495160 -32201.9 629801 130606 -103662 -18407.3 
5 1 49.9743 30.7215 0.257893 35.8166 256612 -111792 -161560 -257471 -105550 -78546.3 
1375 1 37.1747 36.3074 0.0233805 20.9191 78842.4 223111 -39830.3 -170685 377863 69036.6 
10 1 38.7733 33.6081 0.181332 34.3849 22753.8 403281 -463737 -487844 125899 -69229.1 
6 1 38.5793 37.0783 2.79842 14.6128 450688 47804.8 335222 50366.6 63134.7 -63005.6 
8 1 40.2933 34.4174 2.68237 16.7611 48059.4 -11593.4 -359458 -338037 -87017.8 173491 
9 1 40.3815 36.2645 0.186582 8.71538 393805 266459 -212366 -176538 -79241.3 -41679.6 
33 1 41.8085 37.0555 2.81887 9.03912 389698 -423024 -150285 31128.8 -107410 -19996.1 
14 1 41.9486 33.4463 0.280398 9.41514 -46210.9 -50820.6 -325451 92614.6 -157787 115792 
18 1 45.1089 33.5767 0.359767 8.63394 26874.2 24896.1 411157 143769 -40823.5 189497 
12 1 43.4787 34.4324 2.8292 9.49246 409581 -102819 -546642 39024.5 206917 38708.4 
13 1 43.5319 36.2525 0.311093 8.81651 39105.8 162874 8899.83 226487 76899.1 37457.1 
37 1 45.1029 37.1125 2.86283 9.45767 -102704 -52921.2 345277 77541.6 -218115 -22552.8 
22 1 48.2378 33.541 0.227015 7.91141 285577 129731 557866 -356959 -30566.1 -10366.7 
16 1 46.7489 34.3481 2.9938 9.37863 652492 151250 142578 24261.6 -231120 -195638 
17 1 46.7174 36.2212 0.175579 9.73538 -366882 24895.9 20703.2 -31581.4 -171049 66671.9 
41 1 48.1808 37.1283 2.77389 9.23786 -247243 44564.6 87059.6 -49358 -116852 45818.2 
21 1 49.8437 36.1709 0.177334 9.15318 34647.5 -86216.8 212727 -129752 -166034 91768.7 
25 1 37.1569 39.8227 2.75568 15.1097 114240 109387 -26645.6 -35237.3 -48448.6 -125891 
1396 1 35.7124 39.0504 0.0946024 19.3777 -482085 81887.5 -165085 -116273 18278.2 297611 
7 1 38.7318 39.0706 0.222567 8.56536 -337382 -7699.39 -45599 -35976 269383 -89828.8 
29 1 40.2753 39.8228 2.85347 9.22876 59214.1 -61949.8 127546 -24386 -54895.1 -17614.9 
36 1 41.9142 39.014 0.256033 8.49482 87064 28578.2 113295 -89589.8 174829 75952.9 
34 1 43.4607 39.7102 2.87377 8.49749 -51973.8 249181 -55920.1 52200.5 -9962.68 -143337 
40 1 45.107 39.0235 0.324864 8.72493 174153 16851.4 -400430 -257854 12119.9 -10904.7 
38 1 46.6572 39.8554 2.85574 9.50071 -89815.3 -191197 -196597 25800.1 -336055 -88416.8 
44 1 48.3618 38.9137 0.209161 8.85356 -117250 -200974 -563461 -256492 -173519 -114050 
42 1 49.7973 39.8872 2.71257 9.919 -12479.8 251908 -552632 -30992 -208889 381604 
1418 1 32.3868 44.5087 0.101584 20.6037 -65636.9 308463 220537 -320310 122210 23601.7 
28 1 37.1528 41.7657 0.206082 9.31216 -100034 -187292 -233519 -109698 96236.2 10216 
1392 1 33.9856 41.6917 0.304323 22.7506 124415 333830 188003 -231602 -10264.6 -6243.3 
47 1 33.867 45.3538 2.81554 14.4142 23881.6 -171048 -281145 74483.6 464391 151513 
23 1 35.46 42.7594 2.82993 13.5649 -167874 -382506 -392441 -214172 -119529 258515 
24 1 35.4404 44.4691 0.311175 9.32894 -2069.87 -187413 -627051 56017.9 354992 142142 
51 1 37.0435 45.3189 2.88104 9.28888 -145576 -16434.7 -122220 -208355 29840 22930.9 
32 1 40.2345 41.6953 0.266276 9.7167 -578898 -161943 -46163.5 -105435 15578 -119911 
26 1 38.6028 42.5686 2.79719 9.48799 -197564 23339.3 -351187 71186.8 63172.3 146396 
27 1 38.7037 44.5117 0.363572 8.68077 190378 92159.9 -476475 -144802 -77467.6 -52257.4 
55 1 40.1363 45.4158 2.86495 9.53458 -90039.1 615119 -99135.8 36139.1 -229709 -118397 
30 1 41.6588 42.5484 2.86601 9.18626 32189.7 73703.7 -20010.5 -307692 37202.1 -12482.2 
35 1 43.3681 41.7944 0.384316 8.88876 -266044 -2563.24 71428.3 -96604.6 -226545 -120893 
31 1 41.8564 44.5088 0.299868 9.05798 -141840 128035 -116985 111493 -285578 6713.1 
59 1 43.3103 45.2453 2.92239 8.62178 265736 317681 -21737 49847.2 -211858 3770.96 
63 1 44.9947 42.5872 2.86867 9.19223 50687.3 39032 -767035 191996 -15441 -152014 
66 1 44.9902 44.5194 0.310999 8.74045 -193796 -17336 -76630.8 -56374.9 -169025 111781 
39 1 46.5167 41.7391 0.33206 8.79246 122142 56078.2 -290375 -257711 60885.2 141890 
43 1 49.7975 41.6994 0.322272 9.81899 23914.2 -175053 -48348.3 -133162 -146665 545512 
67 1 48.1659 42.7042 2.92999 9.30372 248966 -209409 -147794 -47872.1 -44277.8 152481 
64 1 46.6013 45.3692 2.87117 9.42283 -9141.63 -367311 21530.2 95081.8 -72361.3 10433.2 
70 1 48.2032 44.4702 0.264157 9.70511 10737.1 132573 -164123 -125292 59006.1 -175894 
68 1 49.7367 45.3674 2.91066 9.88785 -533025 -325559 -63845.3 -44240.7 -69963.3 -53084.3 
45 1 32.2782 48.1215 2.80601 18.0662 -327563 268648 248488 258977 -177063 -146291 
1414 1 30.8983 47.2391 0.170638 55.137 -251564 220614 -52996.3 -149281 18230.6 287746 
46 1 32.4247 49.994 0.195505 14.6699 -221067 422187 179328 -112793 180186 -14894.8 
50 1 33.9463 47.1877 0.278417 8.57273 -331456 289628 42798.6 -52100.2 132401 85409.6 
48 1 35.3531 48.1423 2.8845 9.74646 186585 691154 88788.3 -133067 40080.9 -114164 
54 1 36.9974 47.2532 0.275372 9.05276 -188416 532531 -86450.5 -69724.4 46695.5 -140362 
52 1 38.5044 48.1989 2.89324 9.41659 296514 -26901.8 56960.7 -19249 76058.2 -115541 
58 1 40.2094 47.327 0.297348 9.04183 -231131 145541 62535.3 -22862.1 -285226 163052 
56 1 41.8423 48.2438 2.88759 9.20329 201793 295019 267936 135334 -63272.1 58645.7 
62 1 43.3034 47.3203 0.224183 8.52529 -37715.5 380406 191120 -5621.01 243402 12966.3 
60 1 44.9366 48.0416 2.93535 8.42085 -43711.6 477693 59084.8 73918.1 123750 -81638.1 
69 1 49.7281 47.2382 0.275418 9.36142 147894 155101 249482 -100607 155546 84662.6 
65 1 46.5115 47.2644 0.318037 8.56893 205662 3054.93 31510.8 -165464 -92272.8 35617 
76 1 48.1378 48.0443 2.9164 8.85068 48023.4 93352.9 -184999 -136696 -14951.8 19452.2 
1503 1 48.1213 49.9711 0.299289 9.71631 -324199 246954 64983.1 -74082.4 58895.9 116172 
77 1 43.518 32.4852 8.17709 41.7279 121765 -48680.3 -258927 -167735 -320032 -169052 
91 1 45.0237 33.3737 5.49138 16.3447 339528 234413 273096 -132773 -107816 -72321.3 
2 1 46.7682 30.6607 5.55176 47.6822 86190.4 146667 263695 -100630 -155294 -94459 
78 1 48.3045 29.9396 8.0657 42.0255 -654058 -201883 -202537 -39517.2 -242604 41326.3 
79 1 46.6997 32.6005 8.03558 11.3523 87113.2 -270523 -345311 -355080 -197974 -68720.4 
4 1 49.9091 30.8641 5.49162 24.1555 -294332 -576169 -275183 145289 -123304 -292470 
81 1 49.8844 32.5438 7.98391 8.67271 -123553 -54212 -90905 -121007 -379760 -441575 
82 1 37.1032 36.1398 5.31657 50.5268 -218381 29063.7 -118673 -349109 222082 -13385.6 
84 1 40.1838 36.1542 5.41205 17.5091 -2247.3 -158599 242997 -41937.5 111892 102797 
86 1 38.7041 35.2968 7.97701 37.3805 -124993 -158199 41776.3 12376 510501 -129819 
90 1 41.8665 35.1858 8.07762 12.5016 141473 337407 83666.4 -172075 -90510.2 -343107 
88 1 43.3954 36.143 5.43766 8.86755 177381 140259 148820 -25288.1 -57636.9 -45855.8 
94 1 45.0107 35.2153 8.00008 9.65735 -109577 289101 -137387 31445.5 118856 -123671 
95 1 48.2778 33.4213 5.44755 0.127059 384066 103635 -210708 323695 -344483 148289 
92 1 46.5627 36.123 5.52407 0.444414 398429 363166 -324974 120802 868.65 -121335 
96 1 49.8428 36.1445 5.31232 0.377291 117010 222380 44864.7 112686 53741.9 -20717.4 
98 1 48.2151 35.2506 8.04154 9.60476 74587.4 50905.8 218361 -166967 -210387 92069.2 
83 1 37.1283 37.9563 7.9259 15.2704 243041 162620 480878 -218666 231727 6264.7 
101 1 35.5331 39.0005 5.36327 45.7469 -328601 202152 -131638 -221818 -29070.5 -90749.1 
104 1 35.4569 40.6752 7.97885 14.3455 -35137.5 196597 124164 -102749 -126349 100647 
85 1 40.351 37.9292 8.04493 8.83565 179252 -45683.7 172837 -267207 283793 106916 
105 1 38.5597 38.8512 5.36225 0.37519 -186306 48241.9 -346788 -109606 86401 -151488 
108 1 38.559 40.6816 7.93199 9.18962 135848 275176 -24739.1 -229801 292228 72664.1 
106 1 40.0951 41.6324 5.52106 0.464499 11356 347988 -193616 -32150.8 193217 56457.3 
109 1 41.7713 38.8291 5.49451 0.246992 152487 208788 -363510 53626.2 41825.5 24068.2 
112 1 41.7441 40.6151 8.0161 9.65874 -261954 -377963 39399.6 -18667.1 -32990.7 -113327 
89 1 43.3982 37.9963 8.03295 9.515 -755891 -221105 -593414 19994.1 -45201.5 57662.1 
113 1 44.9259 38.9058 5.54012 0.393265 266453 115994 -82452 28656.5 -137511 88732.8 
116 1 44.8432 40.718 8.05874 9.09941 163152 -551128 -261871 123817 -25848.5 39488.4 
110 1 43.3702 41.6527 5.39911 0.292738 107627 180894 62252.3 2935.57 -83206.2 -68447.5 
93 1 46.6353 38.0409 8.04887 10.0206 -31252.5 44757.1 36087.1 -15550.5 -77464.7 -103028 
117 1 48.286 38.9754 5.37729 0.484758 79042.6 341689 160500 56906.1 -205155 6323.32 
120 1 48.1521 40.7268 8.07322 8.94099 158099 -300068 136985 -215014 102887 19344 
97 1 49.7494 38.0059 7.99919 8.34938 -240273 -282608 81414.1 32415.2 -39465.9 262137 
114 1 46.5356 41.6609 5.38504 0.271946 -121595 150102 51389.8 -22648.2 -59456.5 -28784 
123 1 32.4678 44.6445 5.36572 38.2981 -186138 -18216 -667272 -440205 260641 -3882.78 
102 1 37.0349 41.6917 5.32096 0.215025 -658665 -14912.6 82937.3 -16976 -209407 20108.5 
99 1 34.0211 41.7781 5.35636 33.8297 -334631 231599 -98620.6 -226572 134651 43179.5 
100 1 33.9581 43.5544 7.97515 15.4378 -280787 250378 434089 -453387 40782.8 91004 
103 1 36.985 43.4883 8.02569 9.04433 48617 352143 -163685 146589 -133227 325978 
127 1 35.5361 44.4736 5.46402 0.304401 -478106 -121868 -497326 -153161 67889.2 -144015 
107 1 40.1998 43.4793 8.04205 9.29747 10487 1724.79 -568466 -218162 189011 51721.6 
131 1 38.5784 44.4212 5.44474 0.0731468 -686395 109771 105077 66923.5 -50455.9 124961 
135 1 41.6652 44.4623 5.54033 0.377633 -107821 231957 -96815 -26568.3 141765 114465 
111 1 43.3457 43.4025 8.02044 9.16959 -50550 157752 125776 154948 -48522.2 -105255 
139 1 44.893 44.4173 5.40667 0.214592 111276 164065 -56836.1 15508.3 -177749 -20097.3 
118 1 49.6751 41.7853 5.45745 0.393813 -71315.1 -285998 35133 -22295.8 20934.7 82940.2 
115 1 46.5425 43.4806 8.09271 9.57446 54313.5 386842 -15572.7 -54054 135876 159654 
119 1 49.7097 43.4601 8.12052 9.40744 231589 321044 238996 3070.15 43018.8 -73287.6 
143 1 48.0607 44.4484 5.51242 0.206796 46523.8 -158426 -136691 270253 44111.8 -185017 
121 1 30.7725 47.3187 5.52028 53.6814 -268295 -644186 -7334.03 -181680 -158672 200299 
126 1 32.2581 46.2577 7.98757 15.3118 -124067 477369 13077.6 -339772 44870.9 -150640 
122 1 30.6481 49.1082 8.09232 31.8497 14602.5 525657 246027 -166063 -69382.8 90976 
147 1 32.1664 49.9213 5.44008 16.222 -351074 148650 165610 -223597 32352.6 -107534 
125 1 33.8152 48.9751 8.01779 8.32897 206434 164440 -196979 144706 274003 -137578 
124 1 33.8402 47.2685 5.40109 0.226385 1552.11 -288785 -271580 -386877 -55103.4 20931.6 
128 1 37.0295 47.2499 5.46451 0.185893 -18250 10139.2 56827.9 -376102 118969 146192 
129 1 36.8926 49.0766 8.093 9.16865 67420.8 82521.3 -75291.8 -29637.3 203026 -12906.4 
130 1 35.3463 46.2697 7.97231 8.816 149584 -147660 26525.7 54410.5 42171.4 -217933 
149 1 38.4373 49.9399 5.48266 0.425464 188546 -532486 185055 39478.7 62743.9 -182830 
132 1 40.1634 47.2546 5.48489 0.146672 57946.7 307.049 212795 119993 15935.1 -109814 
133 1 40.0984 48.9966 8.13594 9.32562 205164 311133 161906 -133225 41736.9 -264543 
134 1 38.555 46.2575 8.04835 9.66158 215818 296571 166167 -27491 154839 13927.9 
151 1 44.7626 49.9611 5.42639 0.608716 191464 -285587 -31464.2 62909.9 90909 66493.7 
138 1 41.6876 46.1999 8.13895 8.97328 21380.8 -10304.3 -277291 -12480.8 -269999 -100647 
136 1 43.3425 47.2228 5.48388 0.181823 44523.2 172435 -46801.7 -144549 -191655 142303 
137 1 43.3082 49.1089 8.09405 9.43493 71746.5 450305 261259 217682 29015.3 79026.5 
142 1 44.8724 46.2921 8.0237 9.53903 223557 88797 -124742 -138140 -55637.5 144047 
140 1 46.5626 47.2116 5.47409 0.205302 25118.1 29798.6 -118309 21399.4 26124.4 149182 
141 1 46.417 48.9588 8.14036 9.61668 4010.53 367571 624325 -231010 -78655.6 -105996 
144 1 49.7331 47.2731 5.48268 0.138519 -55447.6 511780 -65845.9 204557 53475.7 156961 
145 1 49.6223 49.1499 8.10106 10.0485 -243473 50923 347133 47843.6 -149493 25108.2 
146 1 48.1253 46.2579 8.09192 9.08546 252539 171789 -171214 44216.2 -142499 64480.9 
153 1 43.4276 32.4242 13.1286 18.6097 -126612 56168 95130.9 -147037 32882.3 244218 
163 1 41.8194 33.3653 10.6974 31.6326 50538.9 -195379 -40302.4 -56135.1 -197449 73062.1 
156 1 49.711 30.7894 10.6511 20.5646 137073 -254452 273618 -18981.7 -122695 -27788.4 
155 1 46.527 32.3814 13.3721 13.6223 182782 425721 461705 -108724 19202 -532458 
154 1 46.5451 30.8336 10.564 37.998 141746 -607140 96257.4 -96018.3 13453.5 237986 
157 1 49.6742 32.5945 13.179 14.2719 -40310.9 -430067 -59516.7 177686 -158028 473.479 
158 1 37.2637 36.1229 10.5572 33.5233 -227608 -223987 55965.5 -249643 94872.1 -182851 
160 1 40.3156 36.125 10.6816 12.5858 -80398.6 37153.1 257027 31115.9 91048.1 96009.6 
162 1 38.7319 35.2482 13.2106 30.0793 -151777 -228230 172952 -246380 55329.9 58834.9 
166 1 41.8468 35.171 13.2569 12.6534 -184966 259768 -626084 -73768.1 -34984 30160.1 
167 1 44.9664 33.389 10.6597 12.1869 -83948.9 -629255 -85412.9 199312 107956 -160634 
164 1 43.4225 36.0636 10.6184 9.63288 -188338 343081 320863 280870 -69702.3 -36000.5 
170 1 45.0065 35.1644 13.246 8.99968 112953 480662 -206133 37496.2 117554 86269.4 
171 1 48.0863 33.4129 10.5828 8.43993 248601 -146153 -110660 544.784 -428899 -54180.9 
168 1 46.5718 36.181 10.6604 9.35018 75858.1 472559 206824 196645 -20776.6 -35098 
172 1 49.748 36.3504 10.6017 8.91082 -44748.2 -932.014 108836 218754 -30324.4 -87852.5 
174 1 48.1004 35.1659 13.1966 9.09483 73547.7 213220 14384.8 357080 -189477 60465.7 
177 1 35.695 39.0004 10.4818 28.7275 -326278 5869.96 -591054 -133976 13338.9 87895.6 
159 1 37.1226 37.9276 13.1193 15.266 -144718 280200 180423 -354806 -14337.6 -12091.3 
180 1 35.4818 40.6762 13.0748 15.5306 113200 -470.061 652766 -330382 23673.4 -224484 
175 1 33.8566 41.6886 10.5083 26.0173 44427.9 -27608.6 18481.2 40965.8 57322.5 71064.6 
161 1 40.2401 37.8932 13.2497 9.48902 164543 -33905.5 -212661 57519.6 107394 -151469 
184 1 38.6247 40.6434 13.0492 9.69884 76108.5 -198434 -122706 -26022.8 109104 -52212.8 
181 1 38.6648 38.8129 10.6237 9.58861 -317645 -90978.5 -105192 -233848 160373 -215724 
182 1 40.1143 41.58 10.5571 9.59681 268868 242786 59565.8 -57058.1 268508 182331 
185 1 41.893 38.8481 10.6662 9.18487 -287980 140306 -41614.2 1792.14 -51532.7 -53714.5 
188 1 41.7913 40.6815 13.2443 9.52578 35191.9 207071 268637 4372.27 77324 -113020 
192 1 44.9643 40.7671 13.1976 9.1229 -154883 151447 180644 80279.1 -102486 117724 
165 1 43.4658 37.9604 13.2271 8.75059 108127 389103 138981 97448.8 -283189 43378.7 
189 1 44.9225 38.9315 10.5333 9.60899 -218055 595.168 -139155 198226 45300.7 55778 
186 1 43.3849 41.6178 10.6691 9.76865 48300.5 -307687 -254329 226164 76155.3 4658.03 
169 1 46.584 37.9514 13.2599 9.49633 -194038 175358 376744 -23720.8 24964.5 -160810 
196 1 48.0889 40.761 13.2571 9.00532 -225934 -170799 49144 -325118 -87916.5 -39003.6 
173 1 49.6995 37.9986 13.2592 9.87458 -189301 332786 -246527 -145223 -383324 -147670 
193 1 48.2352 38.96 10.639 8.81065 107523 -484495 -68875.5 201267 -89791.3 64355 
194 1 49.7972 41.6147 10.6846 8.74792 352843 -36089.6 -283634 14834.8 -186042 98796.4 
199 1 32.4434 44.4858 10.6278 21.0967 -373640 -283346 -29467.2 39179 -13436 -55361.3 
178 1 37.0277 41.7278 10.5317 8.48954 -21671.5 -593032 -494484 -131320 -9201.92 41070.5 
176 1 33.9267 43.4623 13.1994 14.973 -168447 -16889.4 299421 -398070 -33249.7 65904.9 
203 1 35.4453 44.3917 10.6414 8.86016 -294012 103334 32701.3 217065 106636 -84020.3 
179 1 37.0077 43.3152 13.1762 8.59298 -78024.7 286655 114270 -8377.5 -62703.8 -66861.6 
183 1 40.1299 43.3935 13.2751 10.0374 65117.2 40044.5 147908 -80192.4 -172720 -7248.71 
207 1 38.5928 44.3622 10.6066 9.5925 -61856.8 -433785 -189256 -207067 -687.026 -149681 
211 1 41.7865 44.3825 10.6056 9.39303 -12572.3 -107319 71700.7 39587.4 -134762 181215 
187 1 43.3801 43.4665 13.2001 9.0239 -126832 -100593 -102882 3465.88 -152927 -255608 
215 1 44.9064 44.4605 10.5859 9.46075 -200334 -160465 -148338 -52422.9 38455 -40061.6 
190 1 46.5482 41.7117 10.6334 9.5119 293300 77166.6 -234935 3669.8 136219 181597 
191 1 46.5042 43.5734 13.1705 9.52307 -380351 -273543 121628 -149808 33468 -171278 
195 1 49.6234 43.3782 13.2778 9.25344 -59518.8 21277.1 127647 -79897.7 -191125 -193016 
219 1 48.1196 44.4911 10.6256 8.83194 136621 57730 -283459 -117226 103736 15938.5 
202 1 32.1395 46.2058 13.1949 16.0579 -107042 663333 223008 -219028 -151819 -223955 
198 1 30.7478 49.0727 13.0439 27.0863 -159978 494253 660443 -146663 -18196 -144793 
197 1 30.8536 47.2087 10.5565 29.4318 -181128 109914 -139563 201443 41397.8 -14262.5 
223 1 32.4197 49.9673 10.5055 11.1637 -678213 -186644 -239612 703237 82772.5 -139811 
224 1 35.3827 49.9458 10.6083 9.02423 -442811 84287 -325397 -162662 132493 -148798 
201 1 33.7996 48.9782 13.2 9.15804 -34913.9 -185119 25876.3 198114 120145 -73374 
200 1 33.8922 47.1804 10.5979 8.57259 -173615 -208614 43753.4 75040.9 -103667 119141 
205 1 36.9554 48.8976 13.1772 9.03248 -240660 -207064 10716.4 194710 57617.1 278450 
204 1 36.9843 47.1521 10.5847 9.44895 -219623 224125 -163187 56713.8 -70465.8 -7695.04 
206 1 35.2417 46.1883 13.209 8.68679 409518 -38144.7 -85501.1 -144143 -108174 -49239.2 
226 1 41.6326 49.9676 10.6881 9.09808 -198430 223716 -249632 184063 -75535.1 -239329 
209 1 40.0182 49.0727 13.2345 9.28977 -544506 -97272.4 -268495 69422.1 52375.9 -21920.5 
210 1 38.4535 46.2029 13.1554 9.40697 294116 149946 -539993 220164 356529 40497.5 
208 1 40.1391 47.0775 10.8352 10.3439 -461584 215887 -231790 -161542 273815 64516.8 
225 1 38.5286 49.9776 10.6789 9.22213 -436362 55975.2 -527258 -136738 -755.306 90893.8 
213 1 43.1554 48.8771 13.2785 9.36083 225369 171364 223977 -5089.41 -16923.2 -79051.1 
214 1 41.7162 46.1525 13.3231 9.78262 51653.5 -156389 -378457 -190828 -211044 103317 
218 1 44.861 46.2205 13.1984 9.35182 -311603 -568984 -265844 -34392.6 76138.5 103728 
212 1 43.2237 47.1352 10.6229 9.80739 -229160 -27390.2 -75373.2 -42420 -170160 -107121 
217 1 46.4235 48.9399 13.1723 9.37399 270982 276920 -638005 -58785.6 42895.1 35789.3 
221 1 49.6379 49.0296 13.1864 9.89666 154499 113260 -78537.1 -27223.2 -72346.3 -85248.6 
216 1 46.4282 47.1525 10.709 9.96128 78513.7 -200379 -423261 -159066 75776.6 -65010.4 
222 1 48.0373 46.2111 13.2652 9.36819 -267984 -251243 -509518 -150398 19051.6 -155053 
220 1 49.6274 47.2462 10.6629 9.58678 125134 79187.3 -166762 -35042.8 -16615.9 -319901 
230 1 43.3826 30.7224 15.6746 104.935 -687989 -311789 -288630 282976 -54531.6 171094 
239 1 41.8033 33.3236 15.6957 23.1927 195894 -448978 258117 24726.5 -25724.2 235180 
229 1 43.4195 32.571 18.3359 17.8014 143106 3390.14 751968 -276596 -77237.1 286673 
232 1 46.3356 30.6683 16.0125 44.4108 -495289 -289931 -192181 75311 -66182.3 -169533 
231 1 46.6539 32.5558 18.3724 13.3336 47973.5 94266.2 275328 -212394 339840 -2386.24 
233 1 49.7577 32.4679 18.3726 14.1862 -333032 522484 1.34389e+06 149258 182887 -30509.9 
3049 1 49.3077 30.6966 15.5446 63.8284 -5729.4 -86423.1 29824.9 116758 291711 229446 
234 1 37.0615 36.1019 15.7373 35.5393 209448 -323806 35690.2 46073.6 -31354 -31637.4 
236 1 40.3311 36.0491 15.7871 10.4465 170955 -478023 -155197 66357 -122471 -80092.2 
238 1 38.4604 35.1406 18.3705 33.8003 123087 -181608 496209 -8529.67 -372878 -73477 
242 1 41.6458 35.0683 18.3806 11.8529 139846 -102516 243.937 166155 82511.2 87082 
243 1 44.9745 33.4053 15.7768 9.57947 227962 -314682 -222287 213552 316266 263178 
240 1 43.3423 36.0476 15.7826 9.26252 -619129 127494 -50895.2 155476 -182883 -120887 
246 1 44.8891 35.2249 18.4657 8.97075 568018 -53508.4 48144.8 -295208 -175800 -93895.6 
247 1 48.0616 33.4162 15.7823 8.32494 8677.52 -377667 -623443 41121.5 56175 -73160 
244 1 46.487 36.1479 15.8741 9.15802 -296911 -344864 163969 -114814 -33009.2 -101147 
250 1 48.2083 35.1981 18.4287 8.54963 232405 57159.8 71381 -293776 47224.5 -43223.1 
248 1 49.6349 36.0694 15.7851 9.36374 127657 313864 152645 -200697 93428.5 46204.2 
253 1 35.5371 38.8577 15.7892 31.0227 -501750 -462160 174029 -117831 -65978.7 -73640.3 
256 1 35.3258 40.629 18.3659 14.7607 -288357 54158.1 -312008 -240397 -125314 265530 
254 1 36.9221 41.5145 15.788 9.50551 -767192 -128871 194876 -270144 -113202 233356 
251 1 33.9855 41.5888 15.794 30.0213 -692626 -206591 -181502 -2642.73 -98763.5 111355 
235 1 36.9837 37.815 18.339 14.888 -51287.5 116682 573676 -170745 -86633.1 -43557.8 
257 1 38.5624 38.7804 15.7111 9.6419 -461747 178364 -31304.9 -224338 -35294.8 -284008 
260 1 38.4088 40.5451 18.3585 8.49771 218271 341219 -12556.3 44271 49753.3 27255.1 
258 1 40.0385 41.5121 15.7991 9.515 151370 -108216 198035 48852.2 55272.6 171777 
237 1 40.0692 37.8144 18.3489 8.91863 -413749 89252.9 -172477 -22068.7 101927 137253 
264 1 41.6069 40.5928 18.3888 9.66647 -23044 -65163.2 -234529 99725.8 -7949.38 -289064 
261 1 41.6525 38.7947 15.9003 9.54487 -311202 -95537.3 -417762 -27407.5 -167655 -53941.1 
265 1 44.8211 38.8872 15.8569 9.62168 169638 67250.6 117954 244469 -201473 -88274.1 
268 1 44.7782 40.7177 18.4488 9.3596 235351 308101 46065 12931.5 36726.8 -82640.3 
241 1 43.1271 37.8303 18.4177 9.01862 -46360.3 348592 136784 293112 -115725 47112.1 
262 1 43.2865 41.5858 15.8684 9.81382 135932 -201143 -18535.6 266981 -205571 -102155 
269 1 48.0133 38.8748 15.9006 9.32593 54307 -225618 -38850.9 -218822 -81923.6 -19834.8 
245 1 46.4261 37.9165 18.4342 9.59151 292170 -99032.5 -358209 -460271 -31092.8 -147520 
249 1 49.6686 37.9341 18.41 9.35863 308790 -343568 77757.6 -65550.3 -175846 146247 
266 1 46.5078 41.6372 15.8955 9.45129 -116662 44662.1 212628 -4130.81 121520 -221205 
272 1 48.0098 40.605 18.5351 9.30223 119807 -268850 74345.1 -6862.35 38974.7 137941 
270 1 49.5811 41.5448 15.8726 9.10203 -277926 -3095.51 13608.6 -48483.8 -288385 100559 
275 1 32.1953 44.2659 15.7474 25.8163 66699.4 259383 -3082.17 -199078 1769.52 -29682.8 
279 1 35.3368 44.3545 15.8179 8.67031 227098 143835 155266 75740.4 -277029 -113156 
252 1 33.62 43.3322 18.3921 15.1675 201692 584537 421871 -211870 -87689.3 -67682.8 
255 1 36.798 43.3566 18.4338 8.95532 429311 67274 43600.1 178017 72355.1 173783 
283 1 38.4553 44.2934 15.8639 10.1081 206203 299623 501930 13650.4 105489 15809.8 
259 1 40.0375 43.3639 18.5003 9.61376 210732 452429 101593 49687.2 -83754.7 -38980.3 
287 1 41.6709 44.2562 15.787 9.28498 -316198 -57253.5 -272886 -94481 -332807 183247 
291 1 44.7982 44.3737 15.7591 9.41407 -141067 -39570.5 92065.3 119779 -87214.2 -106334 
263 1 43.1416 43.4141 18.3878 9.17871 -80044.9 -236893 -49952.1 123806 -41429.5 -86631.7 
295 1 47.9963 44.3747 15.8244 9.23169 -61426.7 -244582 -2574.2 -85037.8 84848.7 -107925 
267 1 46.431 43.3517 18.4593 9.22585 42783.5 -77826.3 95854.9 -272284 -37889.9 -278565 
271 1 49.5525 43.3997 18.5237 9.85899 -63018.3 346662 399507 101338 37200.4 -67644.4 
273 1 30.5727 47.2238 15.6898 33.2527 -189128 430545 148534 -29387.2 -11802.1 -135380 
278 1 31.9695 46.1579 18.2921 14.9282 413820 711598 367390 -346560 218570 -72960.1 
274 1 30.4912 49.0063 18.2433 33.7107 -183778 395724 557747 -118115 40228.9 -143110 
299 1 32.2831 49.8363 15.7424 11.856 -384062 -58349.3 -273806 404700 -59167 -41106.5 
276 1 33.6747 47.0582 15.7898 9.89846 444434 308056 190691 275275 104785 -101120 
280 1 36.9136 47.1518 15.7271 8.80413 140068 284788 310614 -45203.8 67928.1 34652 
281 1 36.8017 48.9623 18.4655 9.29239 420272 161679 -81248.7 173550 31717.5 7293.32 
282 1 35.3182 46.0969 18.4377 9.19058 256856 469088 -122971 265339 -43366.8 -223872 
277 1 33.5906 48.9383 18.375 8.7721 326625 205459 -318467 86175 23165.2 -20441 
300 1 35.3061 49.8949 15.8322 9.57642 -119307 -60035.6 -116174 -90443.5 -156465 -77254.8 
284 1 40.0276 47.1019 15.7699 10.1244 -20817.5 183873 357189 -147747 55517.7 -173544 
286 1 38.3694 46.1739 18.5331 9.70828 -73087.9 292338 278258 -56791.1 12524.4 -199327 
285 1 40.0753 48.8443 18.4944 9.27306 251677 -1402.29 229489 17785.2 116890 -6542.55 
301 1 38.5017 49.9213 15.8701 9.67231 -30696.2 -78551.9 474690 -45969 124006 62583 
290 1 41.6141 46.1634 18.4215 9.5377 -148696 -253717 295104 92511.2 -12657.1 23333.9 
302 1 41.6401 49.759 15.9207 9.17204 -162100 56515.6 67804.2 -10921.3 7111.78 16444.6 
303 1 44.8483 49.8079 15.7983 9.72453 39825.5 363196 124252 82575.5 -60185 -12714.8 
288 1 43.2257 46.9979 15.8775 8.92742 23564.2 -337733 -406659 163815 -157519 -39317.1 
294 1 44.7676 46.1182 18.4479 9.91619 -150166 -63278.1 59545.6 -75356.7 -84140 42155 
289 1 43.2295 48.8557 18.3966 9.7506 -341047 -362130 36910.6 -139850 -287289 29482.3 
292 1 46.481 47.1015 15.7415 9.08861 -22421.6 -115790 -195325 231410 -3421.24 -67052.4 
296 1 49.5849 47.1115 15.7829 9.69956 -365844 -72426 -287407 51315.4 -19742.5 -239035 
297 1 49.5916 48.8741 18.3806 9.0132 -196008 159132 -81447.3 59760.5 54181.7 -134071 
298 1 47.9333 46.141 18.3847 9.34476 235785 -91091.5 115831 151047 34978.3 -110854 
293 1 46.3546 48.8317 18.4079 8.95523 -10473.5 -155229 252079 86912.3 -184437 104690 
304 1 47.9686 49.9446 15.7872 9.63962 -323432 -43215.9 285869 -82984.8 -77572.7 -111819 
319 1 44.984 33.2097 20.9684 12.4019 701347 -48136.2 63689.3 -139452 77530.8 -20545.9 
306 1 46.8717 30.7509 20.9219 45.0649 249391 -206916 72879.1 124262 19045 58525.7 
310 1 36.85 36.0881 21.0242 35.2305 118648 -110625 169868 13820.8 -280580 42330.4 
312 1 40.062 35.9738 20.8509 12.8364 274089 -283475 -50829.6 -132412 121886 31061.7 
315 1 41.7753 33.384 21.0269 30.3686 111617 -617346 3665.78 -162546 -36229.7 -144438 
316 1 43.2562 35.9816 21.0753 9.50528 122452 -75946.2 7999.09 -315201 291905 193414 
324 1 49.7843 36.1697 20.9851 8.68509 372854 -6788.4 14346.7 -368588 -68571.6 -29549.7 
323 1 48.2412 33.4555 21.1407 8.56534 219319 -223358 -212010 7843.4 -108188 79253.3 
320 1 46.4523 35.9746 20.9644 9.05198 327914 254270 59265.7 223648 -261251 -1508.15 
329 1 35.3164 38.8786 20.8501 24.0216 -143514 -290272 -459.753 99813.1 35184.3 169623 
330 1 36.915 41.531 20.9606 8.77547 -398567 -268483 -39889.7 -93586.3 122133 12246.8 
327 1 33.8666 41.5612 21.0022 20.7557 -359532 -719665 -297193 -45525.1 -20680.8 -103909 
333 1 38.4301 38.765 21.0596 9.1074 -259092 -45334.9 -162728 -300782 166441 196361 
334 1 40.0023 41.35 20.9769 9.00652 -290530 -238093 279754 39020.7 17608.7 117854 
337 1 41.5228 38.6608 21.0337 8.7189 56459.6 -16025.4 214470 162105 90386.9 -196597 
341 1 44.7835 38.6889 21.076 9.36233 15533 15938.8 221322 15496.1 140284 -223347 
338 1 43.154 41.4389 20.9893 9.20594 111066 364736 32585.3 146463 191865 3788.33 
345 1 47.8931 38.817 21.028 8.6744 286723 285883 -1120.83 117581 -140561 141461 
342 1 46.3954 41.5599 21.1484 9.48505 181091 -213129 -11670 -3768.71 111722 -41912.1 
346 1 49.6075 41.6319 21.1785 9.9516 62996.8 87829.2 -297021 210487 -130313 261778 
351 1 32.1451 44.3694 20.9591 23.2608 -291035 -122295 -80745.8 -139975 31073.7 -110981 
355 1 35.21 44.2483 20.9797 9.76283 120253 -221349 59495.1 -78085.7 179226 76640.4 
359 1 38.458 44.1779 21.0728 9.63002 248683 183984 358637 -275934 123101 -97042.4 
363 1 41.5929 44.1671 21.0446 8.6891 -263352 273896 19578.1 -966.075 -158954 -20342.9 
367 1 44.737 44.2858 21.0543 9.56926 -104668 -63115.1 -3001.25 343055 -3534.6 -39146.5 
371 1 47.8942 44.2991 21.0494 9.3143 121352 100531 267662 17465.9 1836.92 -37894.5 
349 1 30.6199 47.1234 20.8812 32.1901 -308457 11256.2 177111 68869.1 114565 -171308 
375 1 32.1269 49.8375 20.8879 12.1294 -184656 -225117 71382.5 109205 354595 -64049.3 
350 1 30.6152 48.9437 23.4528 28.4297 -471981 520534 400296 -34568.5 73617.2 -12484.4 
376 1 35.262 49.7956 20.9698 9.18819 84039.8 45139.9 141893 90786.8 49032.7 -112323 
352 1 33.6818 47.0142 20.91 9.28683 -205482 32359.3 83609.2 51837 81776.8 22069.5 
356 1 36.7521 47.0367 20.9969 9.20079 -392538 -43702.1 -386892 -73619.6 122912 -229073 
360 1 39.9484 46.988 21.1399 9.04861 427151 219693 384139 -75780.4 -6497.15 -26649.9 
377 1 38.4095 49.7332 21.0557 8.91397 -194832 151489 82173 16470.2 44722.8 10838.8 
378 1 41.5941 49.7438 21.1483 9.47029 -341061 97377.6 1056.53 74207.1 63899 180404 
364 1 43.1817 46.9554 21.0297 8.91783 171399 -1293.62 281509 202205 -110207 -43997.9 
379 1 44.6465 49.7981 21.0789 8.02046 7886.02 199685 -40993.3 44880.5 -166029 335412 
368 1 46.3718 47.0986 21.0044 10.0217 54343.3 332995 102036 -60401.3 173437 86535.9 
372 1 49.5295 47.078 21.057 9.30171 -72281.1 92526.8 210572 256721 -149846 -102720 
380 1 47.9646 49.8358 20.9934 8.9088 268530 -101006 -49611.2 13326.4 98410.7 241051 
305 1 43.4445 32.4416 23.6096 19.6565 89904.9 -308427 322144 -209939 102576 80627.1 
381 1 43.6339 30.736 26.1297 88.4154 161458 -560585 -491329 44999.6 46970.8 163087 
385 1 41.8672 33.2661 26.208 23.2337 63098.5 -452806 648652 -161954 116301 -52090.2 
387 1 45.0178 33.3347 26.2514 8.59748 142834 -457468 -234220 -316266 -347084 57963.2 
309 1 49.6693 32.4271 23.6205 12.3925 -217588 -219997 -578409 64451 -195999 152367 
307 1 46.6385 32.399 23.6328 14.4799 -146585 175585 368959 -224899 -190380 -27979.9 
382 1 46.7732 30.5231 26.125 52.0939 412273 -162505 -5889.69 -255365 -19235.7 78784.2 
3195 1 49.8273 30.5766 26.0154 55.4467 -141930 -424834 -146637 -70487.8 -31795.6 335385 
389 1 48.1356 33.2315 26.1702 8.86353 31640.9 -26740.9 -178225 -286365 89531 -178511 
383 1 36.9323 36.0967 26.0674 43.1409 24064 -96601.4 184406 -101955 162944 -254977 
314 1 38.4943 35.2925 23.4822 30.011 36311.7 -622813 83376.2 -387574 -124845 -44277.7 
384 1 40.1016 35.8596 26.1674 12.118 421792 190254 508190 80053.6 109908 71526.3 
318 1 41.7802 35.0686 23.5803 12.2991 66640.1 90949.6 -191669 -224624 254904 -177138 