ITEM: TIMESTEP
80000
ITEM: NUMBER OF ATOMS
5538
ITEM: BOX BOUNDS pp pp pp
0.0372549 99.9627
0.137726 99.8623
-1.06529 101.065
ITEM: ATOMS id type x y z c_csym c_2[1] c_2[2] c_2[3] c_2[4] c_2[5] c_2[6] 
11 1 40.1328 30.877 -0.0765871 101.468 94513.3 -122615 304243 126668 -122284 37825.8 
87 1 41.7934 31.7134 2.43505 53.2923 249229 66140.7 -258465 62309.2 267202 -82078.4 
1 1 43.3284 31.0045 -0.061215 32.0735 -169869 -408563 -539769 65868.9 166496 70333.8 
15 1 44.9399 31.8005 2.50254 14.8148 -101929 -389452 -379473 -282314 349559 -211150 
3 1 46.4359 31.0501 -0.0307909 30.8215 -320586 -147565 -335776 32772.4 -21633.3 -93065.6 
19 1 48.0532 31.7 2.50908 15.6179 114888 -224974 143724 88127.4 -213837 -183444 
5 1 49.644 31.0639 -0.118974 27.6749 -502801 24431.1 -152782 22662.1 -146920 -18663.5 
22 1 48.0277 33.6954 -0.0522331 8.10545 120387 -93944.7 546767 -87796.2 67901 96606.2 
1375 1 37.0675 36.2793 -0.117838 20.9291 -78134.5 -418302 71187.6 -480542 138784 -165462 
10 1 38.6745 33.5497 -0.273539 30.3258 -235753 133774 -197322 -142389 103940 334417 
6 1 38.5772 37.2333 2.56197 14.7661 -42258.7 -242008 415787 256510 66881.7 48870.7 
8 1 40.0803 34.468 2.44337 22.1405 435105 547586 339690 -66312.4 55219.5 328832 
9 1 40.1538 36.3427 -0.107931 9.37702 -269282 30674.2 136781 -16531.5 89665.7 -180371 
33 1 41.6552 37.2374 2.49953 9.05879 2679.47 -296185 25996.2 -24252.9 -88563.1 -282375 
14 1 41.7394 33.5688 -0.0960798 9.47959 -508165 -60810.6 -429665 -21847.5 -391845 -92459.7 
18 1 44.8523 33.6442 -0.0327281 8.75607 -231299 -113604 230087 142173 240698 -102890 
12 1 43.2795 34.521 2.3186 9.21236 201499 -71170.4 -1.05622e+06 -250116 195985 -112229 
13 1 43.2131 36.3196 -0.138097 9.12663 -57842.4 -194823 -178550 16024.6 9830.67 64015.1 
37 1 44.8597 37.0707 2.39912 9.27579 -227474 -287397 6865.71 -414226 -108914 -57855.1 
16 1 46.4504 34.3507 2.66237 9.6381 192876 -226746 -356001 -23638.7 -147473 -360938 
17 1 46.4831 36.2735 -0.211382 8.92802 -28084.4 -343396 144982 212597 181159 114332 
41 1 47.9882 37.1743 2.50572 9.7817 -191416 -168907 133687 251439 -138026 28281.2 
21 1 49.7546 36.2057 -0.0373923 9.34244 182315 -242692 140399 -412330 -284820 -78730.9 
20 1 49.6708 34.3789 2.53039 8.8235 361524 212191 -403649 -61386.8 -268462 -125359 
25 1 36.9108 39.7613 2.53996 12.2672 290651 93035.9 683458 354541 -33054.3 -67516.8 
1396 1 35.4073 38.9799 -0.124497 21.0152 -545332 192430 -159918 -64970.9 95325.2 30024.8 
28 1 36.9513 41.7676 -0.139877 8.64432 257769 474575 223182 144920 175880 -97740.8 
1392 1 33.8332 41.639 -0.271501 21.9938 -120991 -30446 -451141 -219292 206421 28057.1 
7 1 38.4264 38.9379 -0.141942 8.74958 -314389 -255824 -60363.5 -30531.3 -92333.6 11945.4 
29 1 40.1031 39.9498 2.55145 9.31639 -67059.3 -656709 302214 230319 -109729 76955.7 
36 1 41.5769 39.0623 -0.254065 9.039 306264 -255207 719019 99596.7 78857.6 -180852 
34 1 43.2038 39.8303 2.52703 9.46298 -94563.6 -115452 -131318 -199904 93262.5 -109167 
40 1 44.8217 39.0028 -0.176172 8.74082 493318 258933 282337 40288 51750.5 -5946.64 
42 1 49.5745 39.8886 2.41115 9.67267 252103 -81900.3 238696 10124.7 -133035 57192.4 
38 1 46.4051 39.7702 2.50733 8.82193 -133336 -217322 131186 271229 18807.3 132892 
44 1 48.0572 38.9832 -0.118925 8.80911 -37184.5 98969.4 -304951 -175005 -109210 4859.82 
39 1 46.5739 41.7697 -0.0790793 8.44141 35574.7 -226896 222611 232759 56706 -51100.2 
1418 1 32.2873 44.4049 -0.14417 22.3096 -371967 189861 10445.9 -501283 18076.2 148071 
47 1 33.7222 45.339 2.42901 15.2655 -6609.9 480714 243353 -366748 -74534.8 -157397 
23 1 35.3488 42.4678 2.46815 11.9467 447330 391510 536096 -97144.1 213046 69044.9 
24 1 35.2965 44.4212 -0.0962375 9.22598 -508267 -74568.4 -486521 94598.2 -107348 -70479.6 
51 1 36.8238 45.2505 2.47577 8.32231 241683 363240 58201 213063 254986 -60149.3 
32 1 40.097 41.6821 -0.149425 9.24906 45832 -83377.1 447288 89680.2 46196.3 22217.9 
26 1 38.5576 42.5778 2.53743 9.28352 72911.4 -11320.7 136360 302181 98689.3 -17376.1 
27 1 38.4738 44.5489 -0.132271 8.55426 20406.4 37853.8 365431 -108281 94285.5 102847 
55 1 40.0509 45.3481 2.51791 9.79797 117160 -278.993 197933 -254066 41795.1 140769 
30 1 41.643 42.5863 2.45612 9.14642 -239739 -352477 3973.09 -215945 22480.7 -147970 
31 1 41.6246 44.3844 -0.181358 9.9069 120703 -92387.3 242431 -78403.1 -127924 211462 
35 1 43.3072 41.7845 -0.0688659 8.46624 72501 -318660 310617 -66597.9 -70322.3 -45586.2 
59 1 43.2174 45.3321 2.46224 9.55802 424987 200496 342469 -151564 25020.5 283786 
63 1 44.9193 42.5511 2.46378 8.94809 -59740 143540 -114333 -142238 -34784.1 8448.44 
66 1 44.9188 44.3299 -0.149931 9.56669 -31101.3 -378357 138572 -166058 12538.4 256386 
43 1 49.7449 41.7532 -0.0626872 8.84829 -150764 -385719 293175 -140697 -14325.7 173398 
67 1 48.0137 42.5837 2.58088 8.92264 -150164 174930 -152607 205489 -101021 487.767 
64 1 46.4316 45.333 2.45408 9.39923 359148 -120976 238287 -15534.1 -161453 118044 
70 1 48.0951 44.4368 -0.160069 9.84939 -347644 -451428 118021 -81969 114131 -41721.3 
68 1 49.7253 45.3318 2.50506 9.18956 423045 235208 74108.3 212083 81005 -186059 
45 1 32.1534 48.1646 2.44972 19.1038 64709 364186 759771 99936.8 -9438.45 185712 
1414 1 30.5912 47.1163 -0.21093 62.914 -409971 256833 -269863 -122621 113518 -89611.8 
151 1 44.8568 49.9271 5.14881 0.195158 -368319 -8955.01 432637 38530.1 -178661 -12890 
50 1 33.6111 47.1287 -0.23008 8.79957 -65838.9 147136 273798 -125681 152337 245760 
48 1 35.2841 48.0172 2.40736 9.4222 180246 373430 437542 -21379.7 199587 301471 
54 1 36.8114 47.1659 -0.265951 9.92439 282301 -119764 98188 223483 87339.5 -189333 
222 1 48.0642 46.1971 12.8661 8.73184 138782 460872 -13361.9 87290.6 308255 3528.15 
52 1 38.3741 48.1339 2.53141 8.74356 -42738.2 485052 477978 328967 -32813.2 47792.8 
58 1 40.0337 47.2184 -0.0865707 9.04932 -32505.1 -254571 130749 -165160 -433612 72632.6 
56 1 41.5341 48.0545 2.53678 8.59904 -25932.5 109287 -220997 -195896 79357.8 194930 
49 1 35.2524 49.9549 -0.0547183 9.60316 563655 -14444.4 366852 -162720 -89676.6 112658 
62 1 43.1853 47.1048 -0.0632293 9.35505 446193 131202 120099 -86823 -71022.1 -11245.2 
60 1 44.7957 48.0615 2.49774 9.49003 290134 286695 47831.8 29748.7 -46981.2 105269 
224 1 35.3318 49.9898 10.4244 9.47851 190989 154317 182273 -213582 -15351.8 273058 
69 1 49.6556 47.1951 -0.0862896 9.41662 -237127 110864 -313930 -48442 57424.2 -220478 
65 1 46.5108 47.1455 -0.133269 9.27062 175663 129213 -109909 84663.2 -297320 -126850 
76 1 47.9939 48.0584 2.38295 9.63755 114254 68698.6 -220164 -120385 73980.5 -254973 
1503 1 48.0624 50.0005 -0.146363 9.26999 -85598.6 -254459 10562.4 -500.885 382812 69217.1 
77 1 43.562 32.517 7.94686 35.7153 -113609 129582 -113544 -374166 -47225.5 -77142.8 
81 1 49.7299 32.5337 7.61501 8.50565 -275413 269187 106631 -192516 -29508.2 78971.2 
4 1 49.6585 30.8249 5.09034 26.9439 93846.8 -382269 -46723.7 71487.7 -19782.3 -337259 
2 1 46.5514 30.7314 5.14657 37.5421 -219126 -299347 301097 -167794 -33083.2 -9175.33 
78 1 48.075 29.9697 7.72276 42.6052 -301136 -287912 103882 -121531 -87227.2 -13860 
79 1 46.6086 32.6685 7.7055 11.48 -484483 -257594 212183 -162807 311337 142021 
82 1 36.9506 36.3644 5.14601 45.6302 86827.1 -151867 222238 -147076 123622 -151460 
84 1 40.1168 36.3218 5.18732 17.0476 290275 -388115 333651 75477.7 -195487 -200000 
86 1 38.503 35.3077 7.8284 39.2762 31074.1 -550922 378267 100601 349340 -240051 
90 1 41.7606 35.2985 7.80952 12.9372 482560 357429 92154.1 -202971 -105455 -341926 
91 1 44.8166 33.331 5.15158 14.5546 107685 119281 284578 -84035.6 145502 -104838 
88 1 43.2984 36.1389 4.99876 7.61576 -194152 363342 532404 -145558 -12856.2 -104856 
94 1 44.9157 35.2487 7.81152 8.72756 -205816 -235789 174786 -91233.1 -36356 162351 
95 1 48.0194 33.4195 5.09468 0.243057 160872 -27050.5 -553774 192595 -153022 236865 
92 1 46.3237 36.1033 5.06746 0.62059 -65700.8 -118879 -111835 370885 15891.2 -362057 
96 1 49.6409 36.1973 4.94685 0.497449 146415 -247253 -327702 163210 -63801.9 -261915 
98 1 48.0535 35.3601 7.72274 9.46621 115419 64697.9 527713 -208071 -48188.3 71707.6 
83 1 37.0428 37.9057 7.87767 14.4369 -271360 225803 236299 -1610.18 138889 -360415 
101 1 35.4762 39.1005 5.26437 40.1567 -219732 -26133.1 -250494 -9090.72 150017 -315554 
104 1 35.5445 40.8458 7.72822 15.7443 -209878 -7031.84 140818 -621813 89211.2 -312370 
102 1 37.054 41.8047 5.12199 0.594511 27097.3 27010.8 -268230 14283 131778 -195275 
99 1 33.9235 41.8268 5.16481 41.8112 -84961.6 -346762 -285607 -33963.5 41622.8 22484.6 
85 1 40.1195 37.9148 7.77113 8.69099 -29855.5 -173338 -84078.3 229016 -36193.1 -375692 
105 1 38.5258 38.9816 5.19977 0.232777 -131726 -166897 11189 -44611.1 -165969 -403714 
108 1 38.6075 40.6701 7.73771 9.05964 144029 476294 146139 314543 -40116.7 -185185 
106 1 40.1545 41.6741 5.15519 0.118215 -185873 -217386 113353 -103740 35866.9 18171.9 
112 1 41.7561 40.7048 7.73478 8.92661 -373694 -115402 194100 -14300.1 -60755.9 24410.2 
109 1 41.6861 38.925 5.05742 0.142292 -198979 -233995 -279881 -244447 78985.7 -76015.1 
89 1 43.3021 38.0054 7.70456 9.30935 -351985 47342.9 312806 -25875.6 -14945.7 -61078.9 
113 1 44.836 38.8323 5.02086 0.275787 -65220.5 -39372.7 44331.7 245352 122964 142358 
116 1 44.8354 40.7386 7.62779 9.95557 -421761 -201945 331544 31636.5 17814 142077 
93 1 46.3684 38.0017 7.75219 9.37909 -197926 8867.29 31535.1 115878 71529.7 -166287 
117 1 48.0035 38.9192 5.08174 0.112634 363260 443668 95237.7 265901 -261415 24397 
120 1 47.9722 40.8309 7.78091 9.48943 120917 345401 -86125.4 -58090.4 -103927 120904 
97 1 49.6174 38.0261 7.56597 9.7228 9251.18 -121959 -135878 -13339.6 53067.4 175393 
114 1 46.4904 41.7419 5.14447 0.349385 -380626 336719 14554.9 -99930.3 153288 292922 
123 1 32.2804 44.5112 5.13945 36.4148 -11392.2 -56283.9 -208587 169386 -121012 -33469.9 
100 1 33.7873 43.6101 7.72777 14.7872 283324 46801.4 420326 -413205 -76861.2 -98279.4 
103 1 37.0025 43.4218 7.66419 9.14347 731505 -88787.2 230827 -225835 114931 -152773 
127 1 35.4033 44.4858 5.04616 0.327601 161378 -112810 181473 -279733 80011.3 49410.7 
107 1 40.2464 43.5407 7.79752 8.695 -292841 164231 -88200.5 -93780.1 -43125.9 -109822 
131 1 38.6022 44.4733 5.11747 0.260904 -117675 53686.4 241355 -110167 250727 4599.53 
135 1 41.6801 44.3402 5.09866 0.307718 -598048 419993 118965 -166599 -3286.14 120870 
110 1 43.3154 41.5839 5.02846 0.398394 25232.2 -111651 -141935 7363.8 -3053.92 -133970 
111 1 43.2141 43.4122 7.68417 9.12318 -800106 4314.56 152203 -14420.3 65599.9 253939 
139 1 44.7696 44.4665 5.16334 0.356546 -267964 213810 202244 45870 7197.6 -120321 
118 1 49.5946 41.744 5.11891 0.13524 -203587 652127 165561 65102.3 -143799 124094 
115 1 46.3456 43.544 7.80849 9.30108 -97457.1 41925.6 -330056 -14596.7 -60227.3 -102999 
119 1 49.6011 43.5537 7.68366 10.0842 595434 -46880.2 389872 149554 -46346.6 -85870.2 
143 1 47.8839 44.5431 5.15479 0.94586 169553 -422127 -72509.4 -7223.59 -189586 -247760 
121 1 30.7935 47.216 5.25721 49.9107 -643364 -321154 -240701 119853 -317960 188288 
126 1 32.2463 46.3296 7.69329 15.7164 -375575 207123 123708 -148313 -390739 84008.9 
122 1 30.6688 49.1165 7.77996 31.5152 -178036 386334 311687 -143180 77623 8968.47 
226 1 41.6324 49.9357 10.4107 9.98454 -66206.6 -76048.4 -319943 -37907.9 85411.3 -161135 
125 1 33.7695 49.0378 7.73143 9.48757 277280 476927 542877 -16528.6 -8538.53 86101.4 
124 1 33.7645 47.2843 5.03665 0.433184 -370160 560564 274235 -2293.68 5457.12 -90467 
128 1 36.8905 47.1789 5.16192 0.350177 -32760.2 136155 110821 -40840.9 109956 4199.94 
129 1 36.8844 49.0154 7.73615 9.63533 -299712 84074.4 284435 51932.3 -210538 -44608 
130 1 35.3029 46.2342 7.72068 8.8398 110207 291732 427190 -256851 258988 104016 
213 1 43.3024 48.9561 12.9064 9.25128 -113722 113698 133765 347993 -68832.1 -41844.5 
132 1 40.0476 47.3362 5.10872 0.513298 162443 244569 139081 -126142 165174 75429.4 
133 1 40.0046 49.1148 7.78863 9.12568 -29291 258403 192920 69089.9 129852 -114231 
134 1 38.4902 46.3011 7.76837 9.76215 181998 402790 438682 46720.3 -37430.5 -3585.58 
138 1 41.6508 46.2748 7.75201 9.98463 -117030 146773 494255 -352649 -75450.9 74098 
212 1 43.1899 47.182 10.3202 9.31685 74769.7 161408 -84258.2 -86642.1 -52967.8 -20962.6 
57 1 41.6787 49.9017 -0.0706163 9.45746 130631 17450.5 390843 -237348 -38805.3 4814.35 
218 1 44.8118 46.2234 12.9318 8.89341 181484 180381 214638 118557 -87987.8 -15250.5 
136 1 43.2552 47.258 5.08814 0.262829 174907 15861.8 71792 86844.1 -83032.8 183877 
137 1 43.1973 49.0557 7.76902 9.13795 -29308.7 -91098.3 -70552.6 -10199.7 -356954 91643.2 
142 1 44.7313 46.2943 7.65321 9.20917 66100.2 87468.8 -97835 104314 -224855 -338284 
140 1 46.4508 47.2147 5.03439 0.222116 18611.7 -584451 285289 206312 -109378 47984.9 
141 1 46.3833 48.9944 7.72886 9.48552 143271 172201 -77015.3 5116.86 -59108.2 79499.7 
144 1 49.7009 47.1209 5.06821 0.347686 218398 -147194 121601 -201188 85408.9 -135497 
145 1 49.5985 48.9718 7.62246 9.75746 206967 -113074 312623 -36709 229689 5595.59 
146 1 48.0523 46.2419 7.64997 8.6415 452591 -105160 -162717 9584.73 27925.8 -444847 
216 1 46.3609 47.0022 10.2163 8.86126 36412.3 188885 245241 -239.558 -5202.82 106540 
153 1 43.3676 32.5663 12.945 19.8411 -26346.5 19874.5 455240 9158.94 -198273 -94559.1 
156 1 49.6732 30.9159 10.2456 20.2408 16829.9 -427090 23940.4 -72313.3 26750.2 252418 
157 1 49.6826 32.575 12.9637 14.6656 271904 91326.2 609016 229032 -73664.1 -117735 
155 1 46.5482 32.3387 12.9384 12.8035 461737 601124 156313 81161.4 -125194 -479591 
154 1 46.5817 30.9772 10.3076 39.1895 1129.59 -572780 -607757 -8334.64 96795 -227075 
158 1 37.0336 36.0113 10.4088 37.3819 -59144.6 -33807.9 -478671 63613.8 -96972.8 124494 
160 1 40.2206 36.065 10.421 11.6889 -64197.5 -48251.9 381462 62773.8 159082 57446.9 
162 1 38.5186 35.3166 12.9268 32.9316 182336 -145817 -15425.5 48740.7 -143167 149096 
163 1 41.8522 33.4004 10.386 33.9527 360153 -515557 -108944 -82391.8 -46093.6 48593.8 
166 1 41.7743 35.1814 13.0322 12.2721 184100 -177504 179051 -63782.5 116279 62444.2 
167 1 45.144 33.607 10.3823 10.0091 215561 -1.07571e+06 -105006 -15931.6 -83068.2 -17600.6 
164 1 43.242 36.0903 10.424 8.51528 -467955 -111641 17441 18838.7 -95655 -31866.6 
170 1 44.9665 35.2739 12.9605 8.93601 237823 -514956 21169.2 -49337.5 -49053.7 -118813 
171 1 48.1764 33.5664 10.3215 8.54211 -587900 -223509 235436 74883.7 -91588 -26862.9 
168 1 46.4735 36.1982 10.3636 9.37872 26711.2 -883204 -275021 -180145 74959.7 -121968 
174 1 48.1967 35.242 12.9242 8.63494 357241 167331 -64249.3 309170 31864.6 -32238.4 
172 1 49.7208 36.3207 10.289 8.96272 -3834.57 -394836 317171 205302 38654.6 -15248.1 
177 1 35.4935 38.8854 10.2971 23.9252 -78284 395795 -37224.1 -77613.8 182038 -169371 
159 1 36.9865 37.9584 12.9737 15.5415 181329 282784 529926 -92736.6 127772 -119667 
180 1 35.3666 40.7125 12.9167 15.8032 162135 199296 333925 -323972 -31930.4 138934 
178 1 36.9959 41.6864 10.4181 9.18206 -313177 158512 288148 -113829 -18505.9 -14561.9 
175 1 33.9926 41.7125 10.2824 30.99 -463168 -757.216 -31320.5 -200252 -10138.1 186378 
161 1 40.2462 37.9554 13.0221 9.35627 434849 5705.7 28172.7 23538.8 172214 33564.3 
184 1 38.5843 40.707 13.0153 10.1189 480212 56071.1 -149537 37498.1 119439 159989 
181 1 38.6012 38.7683 10.3982 9.15836 24939.6 758322 224913 -393.147 -51238 -45045.6 
188 1 41.7617 40.6003 12.9469 8.84998 24075.5 70099.8 352277 -428444 5241.46 48978.7 
185 1 41.6867 38.8423 10.3198 8.82833 -137276 48782.2 162137 137580 76189.4 -97450.2 
192 1 44.9187 40.6422 12.9782 9.44919 -48433.1 26485.5 498532 -52501.6 184837 70560.6 
165 1 43.4346 37.7962 13.0855 8.48014 -398044 -161464 163947 171601 -19116.5 -177103 
189 1 44.8593 38.8463 10.2771 9.45344 186943 345715 202843 87330.1 113985 -216314 
169 1 46.5081 37.8639 12.9477 9.21963 -399561 -533538 256012 -146420 113230 -4914.94 
196 1 48.0663 40.6124 12.902 8.42443 234717 256205 488813 64292.4 70345.2 109250 
173 1 49.7091 37.9983 13.0078 8.72752 -54941 -38567.8 350749 56597.2 -10017.5 -65089.7 
193 1 48.0974 38.8893 10.2259 9.86189 146665 -75381.6 210917 152631 -68157 29375.2 
194 1 49.5443 41.7682 10.3199 9.20722 177414 -44905 -3944.03 278289 3577.2 -227647 
199 1 32.3218 44.5536 10.3815 32.021 -72976 13067.7 -126553 -143910 7382.85 -24687.1 
176 1 33.711 43.5605 12.9827 14.8386 -184615 77333.8 712364 -318144 -265624 131294 
203 1 35.4068 44.3989 10.3464 8.29121 -56848.1 -333856 290448 -110107 -190665 1052.48 
179 1 36.811 43.4451 12.9956 8.35264 270420 -252744 -519935 70964.5 -62377.7 39911.9 
182 1 40.1371 41.565 10.3462 9.81401 -303309 250037 263279 198782 -36647 46765.1 
183 1 40.0743 43.4283 12.9943 9.16675 178973 -83845.1 22098 -249185 -36256.7 44080.1 
207 1 38.5284 44.3475 10.3817 9.75054 -389663 -28705.3 373849 -125664 18461.4 -54190.2 
211 1 41.5958 44.4517 10.3476 8.3321 -304062 -36833.1 -546656 -6515.45 -336657 -301166 
186 1 43.2112 41.6555 10.3383 8.55675 -212728 -27714.9 -110897 -295869 -44414.8 -170949 
187 1 43.2398 43.3402 12.883 8.75844 134772 -66721.3 -68598.8 38749.5 71241.9 -341.092 
215 1 44.7965 44.3319 10.338 9.93706 -77611.8 -238129 136756 -165112 341207 -115779 
190 1 46.3663 41.6428 10.3232 9.35728 -167046 -353390 -82658.8 -72344.4 223314 18099.4 
191 1 46.3837 43.3654 12.9732 8.59781 190048 177550 216878 -55033.6 150744 -192180 
195 1 49.6766 43.4584 12.9212 9.28747 739672 482262 408121 133684 -65577.6 -140439 
219 1 47.917 44.2838 10.3222 8.55571 -93144.1 -652903 104054 397494 -255736 -201086 
217 1 46.353 48.9897 12.8848 9.10079 -63530.6 198613 307259 -170161 113315 55954.1 
202 1 32.0833 46.2482 12.9972 15.7855 98228.1 56282.9 557684 -54830.3 -121590 -139503 
198 1 30.6302 48.9591 12.9908 31.7188 -251226 110117 496112 43573.9 66996.6 -55138.8 
197 1 30.6711 47.2318 10.3324 33.4704 -116749 9559.23 402700 33244.2 -43701.1 -902.248 
221 1 49.6697 48.9927 12.9448 8.36513 247739 -320037 -121460 117760 -32744.8 9555.61 
206 1 35.2464 46.1715 12.97 8.39544 402142 36258.6 58493.4 -40478.5 29707.5 161837 
201 1 33.7072 48.9929 12.9835 9.09664 158809 233642 -131355 65261.5 -138856 155628 
200 1 33.7678 47.2235 10.3479 8.89278 22669.7 23200.5 320788 -46939.5 -111672 -108042 
205 1 36.899 49.0407 12.9791 9.83733 6938.03 563560 -67740.6 53510.7 60791.3 50775 
204 1 36.8523 47.1462 10.4189 9.9568 -158753 227336 318644 -141546 15494.9 -21949.6 
209 1 40.0212 49.0002 12.8926 9.4024 17817 182735 -416670 -108401 -19799.5 -17517.5 
208 1 40.0092 47.1597 10.4368 10.3143 -241116 -413842 -99970.9 205300 -55264.4 -171776 
210 1 38.4376 46.1671 12.9596 9.16353 268000 299652 -232681 31828.7 51116.1 219199 
214 1 41.654 46.1035 12.9068 8.51164 207421 196561 -123747 -113314 -74750.4 -67247.4 
220 1 49.5337 47.1337 10.3238 8.79627 211052 169444 248515 207341 79656.3 102206 
228 1 48.0068 49.833 10.3476 9.14629 188044 20669.9 101368 385404 7445.57 -3584.24 
61 1 44.8541 49.8673 -0.131715 9.39169 193474 169465 -163007 87772.9 -175437 -111899 
227 1 44.8402 49.9076 10.2453 9.86569 -171218 -90683.9 -241944 42173.4 -31975 5561.39 
225 1 38.4914 49.8665 10.3649 8.81971 -361901 -183094 -387072 312128 30225.6 146329 
46 1 32.1099 49.9366 -0.119147 16.2584 144604 466698 91465.3 129858 144658 55702.1 
53 1 38.461 49.9213 -0.155209 9.25698 86998.6 -18345.4 -107980 54500.1 -156497 122785 
147 1 32.1792 50.007 5.20668 8.37217 168719 295387 189076 -131246 38157.4 209294 
152 1 47.9854 49.8901 4.97934 0.482298 25518 281595 75467.8 -220962 143213 157519 
223 1 32.2218 49.9622 10.4432 12.209 1789.7 256502 207671 216416 -127507 196682 
230 1 43.4038 30.6648 15.3949 109.342 -93014.8 -250722 -36968.2 34954.7 52377.6 186866 
229 1 43.4253 32.3756 18.235 20.5179 -364196 140008 869999 -510243 -143370 225876 
232 1 46.4973 30.7106 15.6623 48.7017 412991 -327310 -168325 182251 -52544 -66512.8 
231 1 46.4869 32.4843 18.1778 15.1955 16182.7 -28730.6 705985 235529 103015 -168135 
233 1 49.7035 32.5852 18.1376 15.4069 86320.9 -3855.45 54883.4 108753 106699 -240623 
3049 1 49.6286 30.8821 15.6924 53.7888 74762.6 -538063 -452099 129322 -50613.3 -307001 
234 1 37.1135 36.1418 15.6383 34.9509 -133082 -159550 15151.7 34541 19282.7 -254857 
236 1 40.223 36.1297 15.5989 11.7395 151905 153705 198529 165264 -76901.1 210117 
238 1 38.6186 35.4904 18.3136 29.3396 -533942 -262803 45806.1 -91114.7 -91397.3 -38525.6 
239 1 41.9798 33.4224 15.659 21.4894 -241755 -177202 249277 -325879 72593.5 -126270 
243 1 44.9845 33.3193 15.5484 9.06298 30924.4 147750 311148 213496 -151150 -244737 
242 1 41.6305 35.2164 18.1504 11.0731 -81331.7 448414 -186850 -350690 -18437.3 -143128 
240 1 43.3302 36.1151 15.6703 9.72768 -185264 -543783 -249329 -79653.9 -72673.7 136325 
246 1 44.9128 35.0534 18.1406 8.90509 504732 120503 -29720.4 285778 9191.69 105708 
247 1 48.1442 33.4825 15.5745 9.35769 -147082 -690863 173071 403613 -36484 81178.4 
244 1 46.6078 36.1111 15.5317 8.86892 -108421 118547 298143 396403 -51090.8 86848.7 
248 1 49.6499 36.1399 15.6028 9.58523 -85988 45917.9 455785 -267404 -90771.9 21106.4 
250 1 48.1071 35.2674 18.2811 9.54889 508558 290212 125389 124546 203789 141289 
253 1 35.5714 38.9363 15.5307 22.749 -277059 224197 -502240 -32286.2 -210832 238395 
256 1 35.4349 40.8626 18.2675 15.6797 -358330 -108363 885135 -313886 -142904 130335 
235 1 36.9899 38.085 17.9948 16.2381 -151102 -161944 253062 -261240 -160908 -11237 
257 1 38.6327 38.8936 15.4821 9.32723 241009 551687 -304661 8942.31 188474 121721 
237 1 40.1485 38.0788 18.2107 8.91413 59048.2 -34080.8 92070.6 -111224 -47014.9 27812.6 
260 1 38.4747 40.7251 18.1042 9.48256 -67516.3 -126708 488838 61881.2 76206.4 125755 
258 1 40.2008 41.6801 15.6256 8.72975 406759 185737 91974.7 -116816 -100935 100473 
261 1 41.881 38.8478 15.6514 8.69136 86467.2 426102 63031.2 285626 -121126 126121 
264 1 41.7111 40.8229 18.2245 9.04196 -161457 -353945 -183367 -289181 -175610 -46474.1 
265 1 45.0009 38.7864 15.6115 9.21479 60537.5 138621 -83494.7 -70690.8 -154771 -70783.1 
241 1 43.3115 37.9084 18.2078 9.5254 33499.7 341901 -356478 3531.11 -149210 230126 
268 1 44.8612 40.6658 18.1466 8.85135 147178 -86398.2 -71521.5 222746 18221.7 -70252.3 
269 1 48.2312 38.9834 15.6449 8.54691 -187331 -316297 159998 161344 46349.6 74282.4 
272 1 48.1341 40.7218 18.2382 9.42171 272197 -93105.1 -149689 108973 -258624 -130750 
245 1 46.4627 37.948 18.2475 8.87198 -28576 171839 -27227 370477 -4350.73 276880 
249 1 49.6325 38.0112 18.2802 8.72501 144296 -43922.3 139039 -100637 -116280 10583 
270 1 49.7854 41.5691 15.5185 9.3007 -55997.9 -576151 368959 -490149 59573.9 42673.3 
275 1 32.1664 44.4822 15.6718 34.2003 116868 253992 323256 -83724.3 -14273.7 38720.3 
254 1 36.9653 41.7171 15.4916 8.9055 234473 202505 -16350.8 -32773.5 -77404.3 214775 
251 1 33.907 41.7204 15.5986 33.3344 -30814.3 331194 279822 -205167 37548.4 -14103.4 
279 1 35.315 44.4823 15.5551 8.56122 291088 -111830 -165730 -138258 84336 -142152 
255 1 36.9142 43.46 18.2702 9.31297 37529 -271881 683613 -106714 -23060.7 49567.2 
283 1 38.4658 44.4203 15.5157 9.74079 131441 56973.2 215487 -25406.4 11933 63293.6 
259 1 40.0645 43.4778 18.2305 9.67379 117743 -33547.8 257933 57219.4 -65894.4 -80708.5 
287 1 41.6526 44.4329 15.5748 9.09554 303109 -117245 37969.9 -310522 -108165 -91889.8 
262 1 43.4154 41.7059 15.5779 7.92776 330500 319391 8767.72 -143327 -51751.3 311.679 
291 1 44.93 44.3711 15.526 9.29009 -318426 -723631 -290887 -309233 29460.1 -117990 
263 1 43.2798 43.3931 18.163 9.57806 -65010.4 -478977 -246069 -221887 -158347 -235395 
266 1 46.5931 41.5972 15.661 8.82271 75163.7 -363864 -34857.6 39682.1 61615.4 -63692.6 
295 1 48.0178 44.3143 15.5747 9.96574 -463871 -399380 -84896.8 -54356.9 195674 -17473.9 
271 1 49.6971 43.3877 18.1733 9.39374 -191546 137717 18356.9 -233179 186341 48959.4 
267 1 46.4636 43.4525 18.052 9.25083 62750.2 -241446 -502304 -79734 224471 -191252 
273 1 30.5851 47.1946 15.6598 36.4752 -375489 54503.5 481349 15152.7 -2879.99 70935.6 
278 1 32.1356 46.3138 18.2818 14.6382 -34170.3 71771.6 196768 -603867 -109419 79307.9 
274 1 30.6332 49.1203 18.283 30.3059 -456352 343081 321249 -257923 -39938.9 128656 
276 1 33.6448 47.2307 15.5798 8.7336 79705.3 -118274 -37920.5 178359 -91662.6 -229960 
280 1 36.8263 47.1771 15.569 9.4157 199416 112699 296751 -114406 157989 92119.1 
277 1 33.7012 48.877 18.1384 8.61013 25975.6 -218472 -634147 90183.7 68581.1 -56676 
282 1 35.3063 46.1867 18.1217 8.96922 273940 2789.93 178459 69989.3 306491 -130952 
374 1 48.1818 46.1717 23.4593 9.13666 44132.1 -201402 -206982 -246882 436480 330522 
284 1 40.053 47.2665 15.5346 9.10232 239537 -17576.7 416421 -39894.1 -112430 -46580.3 
286 1 38.4733 46.2482 18.2783 9.902 323352 163025 578935 -81480.5 -284415 -79111.2 
285 1 40.1014 48.9864 18.159 9.27274 113500 222563 116296 -226286 -69745.9 -32920.8 
290 1 41.704 46.2044 18.0759 9.54991 -87427.6 152255 67984.2 -192700 47110.1 -59727.4 
304 1 47.9387 49.7098 15.5483 8.11914 88001.1 206860 252109 67176.2 127949 14638.2 
288 1 43.2275 47.1288 15.5442 9.48886 91771.2 8607.84 -328293 -78852.8 997.197 241572 
294 1 44.8069 46.2212 17.9977 9.25318 -127328 160718 43519.3 38851.5 -109054 82272.8 
289 1 43.1962 48.9646 18.1462 8.79235 -123353 -391959 -82360.5 52430.8 122993 37365 
419 1 44.8838 49.8418 26.0718 9.86986 131810 201788 -210164 -149189 87445 -283497 
292 1 46.5147 46.9642 15.4519 8.44777 -214026 -588909 31898.1 -452921 45663.2 47073.8 
296 1 49.62 47.0485 15.5832 9.20987 -100622 22919.1 70783 157236 -61317.8 -20286.9 
293 1 46.4638 48.8963 18.1683 9.57166 53349 89753.9 168852 -100566 138320 325063 
298 1 47.9972 46.0982 18.1362 9.13349 -228556 -143715 92055 -141750 164185 7826.89 
297 1 49.5504 48.8932 18.2188 9.40699 -85722.9 -68164.1 583331 152696 -49163.2 -25020.5 
376 1 35.4244 49.8696 20.8816 9.54841 -306738 -615190 -170934 285483 158013 -167907 
319 1 44.9759 33.4408 20.8049 11.7837 460662 -32192.4 -412201 67654.3 52726.3 199854 
306 1 46.7445 30.7652 20.9402 46.1431 194812 -230165 -60786.1 -155159 137612 -304850 
308 1 49.8517 30.7439 20.644 43.4293 362509 -48369.5 17520.9 8675.39 -27378.5 18169.6 
310 1 37.2318 36.4095 20.9254 35.9093 -495114 -674909 -66545.3 -62512 56506.2 -210922 
312 1 40.2231 36.2494 20.8167 11.4017 -398773 -110925 -23326.7 -321021 -361422 60747.4 
315 1 41.7808 33.3609 20.7587 34.5104 282261 114801 214445 -96089.2 -22201.2 -60805.3 
316 1 43.3795 36.0921 20.6782 9.05665 190203 380636 18475.9 166096 24069.5 356925 
323 1 48.1672 33.4474 20.8088 8.91281 608762 37363.4 218178 -172398 92788.1 202292 
324 1 49.729 36.2175 20.9131 9.46786 92901.7 37019.4 89758.1 -87532.4 -101670 -59650 
320 1 46.5515 36.1978 20.7738 8.76798 -111647 -82971.3 -130137 270627 173805 97356 
329 1 35.4246 38.9464 20.7936 25.7223 -64861 78181.6 170617 -111124 -98532.6 -40756.5 
333 1 38.5214 39.0154 20.7852 9.43283 66189.7 -242647 634945 -498770 167530 -37506.8 
334 1 40.1118 41.6511 20.7869 9.81344 356822 -138181 302199 -97807.2 189273 3873.39 
337 1 41.65 38.8835 20.7843 9.11748 114755 -124814 81336.5 -115821 -217549 38701.7 
341 1 44.9508 38.8607 20.8375 9.04876 323981 -146426 61449.9 157570 130336 -51368.7 
345 1 48.1234 38.9298 20.8643 8.99502 -331281 -629319 -141169 -240040 165290 -159745 
351 1 32.2613 44.4616 20.7678 23.0853 -410298 154287 29377.3 -27968 33416.4 95790.6 
252 1 33.7988 43.5319 18.2486 15.1958 -178273 4989.21 465380 -269538 77346.7 -89828.6 
330 1 36.848 41.7616 20.9281 8.67848 318409 -66873 -148624 47296.2 -84002.2 103326 
327 1 33.7484 41.7137 20.8477 26.0563 -262856 -309516 -271497 571.934 -77335.8 -82761.6 
355 1 35.2824 44.4018 20.9034 9.42637 -249570 -261636 185771 311602 2171.39 -55551.8 
359 1 38.4747 44.3921 20.9214 9.50013 -113366 1032.06 -60955 -116809 -1780.6 164136 
363 1 41.6419 44.4295 20.7985 9.41491 333255 387001 285155 -180358 -59296.1 -89780.3 
338 1 43.3236 41.5489 20.7703 8.79288 -70362.3 155968 -7719.6 -87034.6 -51414.9 -5396.31 
367 1 44.9043 44.3428 20.627 9.85854 282282 350438 368924 121921 -95040.5 -92443.6 
346 1 49.5767 41.5599 20.8737 9.0134 -269269 -762744 -336082 -196377 -120340 63268.5 
342 1 46.4395 41.645 20.7731 9.44701 -437852 -417115 159751 -35235.2 12553.7 -157740 
371 1 48.0691 44.257 20.7778 8.90883 -189567 -190621 206107 -240627 335801 149215 
349 1 30.7002 47.317 20.8806 31.7533 -158315 72211 134896 -195569 -15917.2 11.3328 
414 1 49.7468 47.1331 26.0264 8.88492 -549303 -142072 264772 45495.5 -141659 -18670.6 
281 1 36.853 49.0084 18.2908 9.63409 400444 119995 492749 174806 73332.5 -70719.2 
352 1 33.8312 47.1733 20.7204 8.96063 -182955 -247706 302113 322833 -169556 80298.9 
356 1 36.8732 47.1563 20.9659 9.67236 -361520 -157446 387654 12860.9 91314.3 -151771 
360 1 39.983 47.1918 20.8262 8.92161 -2134.55 -199388 226110 278910 -285041 -54739.3 
299 1 32.1602 49.8859 15.6555 11.8585 -33957.8 -296406 56987.7 405689 -36868.3 175170 
364 1 43.3176 47.2243 20.7604 8.60813 271425 -67076.8 533781 59423.3 -135761 172743 
373 1 49.5998 48.9285 23.4439 9.3017 -158994 -431188 -362282 11079.2 42221.8 54088.4 
369 1 46.4452 48.8831 23.4164 9.31684 -348787 -46968.5 -124998 -316719 54278.9 67598.5 
368 1 46.4728 47.1341 20.7436 9.86493 -76936.6 103735 353668 -104674 134034 87129.8 
372 1 49.5683 47.0233 20.9043 9.41444 -268978 49536.6 -182231 3473.69 97431.8 127913 
305 1 43.4221 32.4992 23.3024 19.5762 -40943.6 334366 743106 -294927 99120.8 -180063 
381 1 43.3502 30.6092 26.0686 117.969 -86235.5 199153 -55449.1 122685 19226.3 -170030 
309 1 49.7617 32.3485 23.3659 14.1201 514941 616985 892089 48384.7 -111808 78463.1 
307 1 46.513 32.5644 23.3709 15.1234 141545 -187665 -445541 -307931 -223679 -27261.6 
382 1 46.4152 30.7649 25.7741 38.9955 322531 -687059 -434078 -5893.18 16251.2 114976 
3195 1 49.5499 30.6593 26.0481 53.264 292860 117093 -49805 116293 -94664.6 18708.4 
383 1 37.1861 36.2311 26.0739 34.6084 -219928 -135864 -46529.1 77016 132778 -106556 
314 1 38.5876 35.4198 23.4771 33.1885 -210630 -200187 -50099.6 10806.2 -168682 -50129.8 
384 1 40.2626 36.2455 25.9672 12.4351 151384 22145.3 64271.6 -230081 -46309.7 125918 
318 1 41.7495 35.2979 23.2777 12.1812 -70122.3 516025 253262 -190664 -78282.7 165871 