5538
Atoms. Timestep: 100000
1 43.3612 30.9033 -0.422974
1 46.4305 30.8429 4.96332
1 46.5164 30.8642 -0.304617
1 49.5389 30.7885 4.93618
1 49.609 30.9739 -0.425131
1 38.5698 37.1169 2.36094
1 38.4599 39.0241 -0.193512
1 40.1083 34.3954 2.14137
1 40.0064 36.3089 -0.312047
1 38.5496 33.5156 -0.368737
1 40.2076 30.8091 -0.523884
1 43.2257 34.3663 2.30068
1 43.2285 36.1839 -0.33215
1 41.6875 33.4732 -0.41664
1 44.9111 31.6079 2.22372
1 46.4402 34.2935 2.27888
1 46.4479 36.1917 -0.30635
1 44.8814 33.4902 -0.32281
1 48.1343 31.5531 2.29886
1 49.6247 34.3454 2.31885
1 49.5455 36.3117 -0.348439
1 48.0701 33.5108 -0.316398
1 35.4508 42.7475 2.48834
1 35.3776 44.4892 -0.210145
1 36.9145 39.9094 2.42919
1 38.518 42.567 2.39902
1 38.4175 44.4864 -0.128659
1 36.9782 41.7795 -0.186607
1 40.2238 39.812 2.35794
1 41.7361 42.5775 2.37205
1 41.5941 44.5034 -0.145576
1 40.1609 41.7665 -0.279927
1 41.6808 37.042 2.25437
1 43.3496 39.7935 2.28292
1 43.3344 41.6809 -0.224199
1 41.7019 39.0277 -0.361416
1 44.9366 37.0318 2.35117
1 46.466 39.8394 2.31752
1 46.4122 41.7033 -0.188928
1 44.811 38.9841 -0.254633
1 48.0683 37.1171 2.28884
1 49.6017 39.8133 2.47889
1 49.6617 41.6837 -0.178367
1 48.0727 39.0342 -0.234523
1 32.1163 48.0599 2.28207
1 32.1238 49.9051 -0.363419
1 33.7454 45.4313 2.42493
1 35.2359 48.2342 2.33471
1 35.223 49.9317 -0.364003
1 33.6131 47.1542 -0.361137
1 36.9978 45.3722 2.43559
1 38.3938 48.074 2.27457
1 38.434 49.9794 -0.224706
1 36.8125 47.2797 -0.241924
1 40.0814 45.3108 2.41452
1 41.7529 48.0594 2.37949
1 41.5968 49.9306 -0.179059
1 40.0886 47.1766 -0.182407
1 43.2906 45.2612 2.43032
1 44.8869 48.0384 2.37261
1 44.8553 49.9862 -0.224929
1 43.2005 47.2396 -0.18437
1 44.8621 42.583 2.44014
1 46.4466 45.3499 2.36083
1 46.4008 47.1772 -0.193889
1 44.7885 44.3566 -0.234767
1 48.029 42.5463 2.37008
1 49.635 45.4468 2.31658
1 49.5301 47.1754 -0.296304
1 48.0375 44.3845 -0.299622
1 33.623 50.8766 2.38853
1 36.8528 50.9316 2.41661
1 40.0547 50.8146 2.35233
1 43.2966 50.7842 2.38366
1 46.4984 50.8935 2.43466
1 48.051 48.1237 2.39388
1 43.3448 32.3124 7.74232
1 48.0291 29.8506 7.44764
1 46.4469 32.5887 7.63198
1 51.1167 30.0794 7.51384
1 49.5273 32.6098 7.59601
1 36.9417 36.3397 5.01103
1 36.9314 38.0185 7.6255
1 40.1044 36.2003 5.01613
1 40.0136 38.0095 7.60466
1 38.6181 35.4552 7.6148
1 41.7396 31.6517 1.93738
1 43.1876 36.0566 4.84668
1 43.1787 37.9964 7.56201
1 41.7021 35.1798 7.49566
1 44.802 33.3557 4.91627
1 46.4072 36.0971 4.92931
1 46.2933 38.0092 7.58622
1 44.7154 35.1763 7.52672
1 47.9379 33.4465 4.87661
1 49.5568 36.1468 4.87339
1 49.5439 37.9428 7.55375
1 47.9006 35.2154 7.64022
1 33.8974 41.8774 5.08434
1 33.8319 43.4318 7.77778
1 35.4511 39.1012 5.1504
1 36.9628 41.7319 5.02794
1 36.865 43.5113 7.54067
1 35.3601 40.8031 7.67463
1 38.5281 38.9203 5.01522
1 40.2736 41.5425 5.01684
1 39.9823 43.3105 7.58832
1 38.4486 40.6379 7.5686
1 41.7501 38.8195 4.94639
1 43.3141 41.6236 5.1336
1 43.2704 43.4558 7.71707
1 41.6664 40.713 7.69917
1 44.8845 38.8852 4.9116
1 46.4794 41.7253 5.05992
1 46.3836 43.5398 7.63745
1 44.8726 40.8126 7.64408
1 47.9855 38.9 4.9619
1 49.5451 41.6634 5.06066
1 49.5903 43.5109 7.77919
1 47.9857 40.785 7.71486
1 30.6453 47.3076 5.09332
1 30.6814 49.0101 7.79329
1 32.3485 44.547 5.22868
1 33.5855 47.3076 5.07222
1 33.7002 48.825 7.66934
1 32.0989 46.2613 7.86401
1 35.4004 44.5792 5.01038
1 36.8224 47.2591 4.9333
1 36.8139 49.026 7.67991
1 35.329 46.1872 7.65041
1 38.4385 44.4082 4.98285
1 40.0639 47.2148 4.97047
1 39.9877 48.9856 7.62217
1 38.4849 46.2197 7.60724
1 41.6147 44.4111 5.00257
1 43.342 47.1627 5.07182
1 43.1803 48.9589 7.58384
1 41.6104 46.2235 7.60104
1 44.8748 44.4304 4.96385
1 46.4652 47.1899 5.10319
1 46.4032 48.9385 7.59139
1 44.7914 46.2424 7.73504
1 48.0452 44.5165 4.99755
1 49.6218 47.2289 4.94248
1 49.6303 49.0226 7.58389
1 48.0582 46.2166 7.63904
1 32.0537 49.9036 5.21055
1 35.2387 49.9089 4.96766
1 38.4599 49.8577 4.90567
1 41.6227 49.8729 5.05627
1 44.9458 49.8561 5.0312
1 48.07 49.9412 4.99338
1 43.3819 32.4605 12.8745
1 46.4729 30.792 9.94752
1 46.4057 32.4995 12.8335
1 49.507 30.7503 10.2038
1 49.5717 32.4595 12.7679
1 36.9794 36.1301 10.2039
1 36.9787 37.9936 12.9369
1 40.137 36.1235 10.1405
1 40.1057 37.9614 12.9791
1 38.6121 35.3953 12.7824
1 41.7612 33.369 10.3099
1 43.2552 36.1669 10.1893
1 43.2676 37.9457 12.9631
1 41.6837 35.2565 12.8426
1 44.9593 33.4143 10.2287
1 46.3453 36.187 10.2155
1 46.3457 37.976 12.8693
1 44.8145 35.2582 12.8099
1 48.0027 33.4788 10.2299
1 49.5584 36.1352 10.2095
1 49.5256 37.9788 12.8925
1 47.9631 35.2038 12.8357
1 33.8497 41.6614 10.4356
1 33.8129 43.4267 12.984
1 35.386 38.9346 10.292
1 36.9422 41.6531 10.2394
1 36.9874 43.4407 12.9195
1 35.3795 40.6479 12.945
1 38.5158 38.8139 10.2582
1 40.0831 41.7301 10.2951
1 40.1205 43.572 12.9082
1 38.5673 40.69 12.801
1 41.5998 38.9745 10.2632
1 43.2809 41.6691 10.2003
1 43.2636 43.4699 12.7932
1 41.6176 40.6493 12.8718
1 44.6985 38.8814 10.1885
1 46.3435 41.6735 10.2373
1 46.4544 43.5562 12.9443
1 44.8899 40.8272 12.8572
1 47.9554 38.8461 10.1875
1 49.5215 41.5555 10.3255
1 49.5153 43.5023 12.9856
1 47.9923 40.7742 12.8334
1 30.6621 47.2442 10.5771
1 30.5943 49.0036 13.0495
1 32.2871 44.5002 10.4329
1 33.7852 47.1627 10.3691
1 33.6634 48.9542 12.9952
1 32.1634 46.2742 13.0836
1 35.3759 44.3387 10.3365
1 36.923 47.2369 10.2458
1 36.8034 48.9391 12.9734
1 35.2978 46.1991 12.8856
1 38.4572 44.4416 10.1595
1 39.9646 47.2212 10.3782
1 39.9298 49.0019 12.873
1 38.4311 46.2118 12.9197
1 41.6086 44.4876 10.2247
1 43.1023 47.2292 10.2087
1 43.2329 49.0172 12.9332
1 41.7103 46.3403 12.8466
1 44.9332 44.4798 10.3603
1 46.3781 47.2109 10.229
1 46.4035 48.923 12.8935
1 44.8289 46.2573 12.8694
1 48.0046 44.3519 10.3432
1 49.6516 47.1116 10.3005
1 49.5778 49.0425 12.8913
1 47.9416 46.2231 12.8722
1 32.1764 49.9279 10.4702
1 35.1824 49.8647 10.2515
1 38.394 50.0167 10.4016
1 41.6204 49.9447 10.3154
1 44.7984 49.8609 10.2047
1 47.9457 49.969 10.2364
1 43.4509 32.6144 18.0769
1 43.3472 30.7898 15.58
1 46.5422 32.5429 18.085
1 46.49 30.7702 15.5407
1 49.6362 32.4 18.0682
1 37.203 36.2225 15.5065
1 37.0586 37.843 18.1717
1 40.2479 36.1852 15.5199
1 40.0748 37.8703 18.2119
1 38.6723 35.0762 18.2992
1 41.7417 33.4608 15.5354
1 43.3682 36.0832 15.5552
1 43.2466 37.9194 18.0981
1 41.6835 35.3083 18.1282
1 44.9406 33.424 15.3862
1 46.4458 36.1358 15.5191
1 46.4447 38.0235 18.0801
1 44.9555 35.2335 18.1454
1 48.0522 33.506 15.4707
1 49.4875 36.2036 15.437
1 49.7076 37.9284 18.0385
1 48.1275 35.1718 18.1078
1 33.8302 41.5736 15.5621
1 33.5705 43.5234 18.1967
1 35.6774 38.9203 15.6592
1 37.0424 41.6586 15.6115
1 36.8577 43.4015 18.1896
1 35.2994 40.7336 18.2361
1 38.7285 38.8793 15.6168
1 40.077 41.6225 15.4581
1 40.0164 43.4175 18.1032
1 38.3756 40.6454 18.3051
1 41.7314 38.8238 15.4802
1 43.2085 41.5671 15.4968
1 43.1827 43.5681 18.1717
1 41.7033 40.6202 18.0433
1 44.8516 38.8657 15.5037
1 46.4368 41.6046 15.5274
1 46.4401 43.4855 18.1859
1 44.8279 40.7494 18.1475
1 47.9187 38.9128 15.4101
1 49.7092 41.6062 15.4953
1 49.6366 43.4623 18.1392
1 47.9945 40.7305 18.0988
1 30.6188 47.1706 15.7241
1 30.5797 48.9767 18.3288
1 32.2098 44.5932 15.6238
1 33.7341 47.157 15.6828
1 33.7105 48.9776 18.2777
1 32.0916 46.2737 18.2864
1 35.321 44.263 15.5762
1 36.8368 47.0722 15.5739
1 36.8891 48.9334 18.1155
1 35.2586 46.1684 18.2439
1 38.5236 44.385 15.4934
1 40.0068 47.2248 15.4207
1 39.9719 48.9687 18.0652
1 38.4433 46.2417 18.1604
1 41.6441 44.4199 15.3854
1 43.2607 47.041 15.4929
1 43.1503 49.0285 18.1369
1 41.5916 46.2145 18.1025
1 44.8126 44.2892 15.4942
1 46.2781 47.0508 15.5253
1 46.2954 48.9466 18.1638
1 44.7926 46.208 18.1766
1 48.0096 44.3225 15.5869
1 49.6133 47.092 15.3971
1 49.6088 48.9987 18.1411
1 48.0567 46.2966 18.1118
1 32.0668 49.9728 15.6633
1 35.276 49.9649 15.631
1 38.5042 49.9234 15.4833
1 41.6134 49.9606 15.4623
1 44.8092 49.8164 15.5168
1 47.9247 49.8132 15.5454
1 43.2669 32.51 23.5015
1 46.3189 30.6913 20.8786
1 46.3666 32.5874 23.423
1 49.517 30.7966 20.8053
1 49.4837 32.4224 23.4179
1 37.0565 36.0944 20.8359
1 36.8828 37.876 23.4552
1 40.1287 36.1397 20.7903
1 40.0062 38.0013 23.4622
1 38.5378 35.218 23.4348
1 41.7063 33.5432 20.7613
1 43.2847 36.1356 20.7837
1 43.2488 38.0408 23.4246
1 41.631 35.2586 23.4434
1 44.7607 33.3986 20.8064
1 46.4804 36.1307 20.7442
1 46.5321 37.9456 23.3417
1 44.8206 35.2603 23.35
1 47.942 33.4359 20.7626
1 49.5406 36.1464 20.8372
1 49.5723 37.9454 23.3098
1 47.8969 35.2213 23.3824
1 33.7545 41.7207 20.8985
1 33.9231 43.543 23.4779
1 35.4353 38.8709 20.7362
1 36.8711 41.6927 20.8196
1 36.8306 43.4606 23.4915
1 35.2934 40.6598 23.5283
1 38.4553 38.8704 20.8889
1 40.0577 41.6598 20.7914
1 40.087 43.4556 23.5256
1 38.4314 40.7429 23.3659
1 41.699 38.8123 20.8071
1 43.1561 41.6375 20.7993
1 43.3288 43.5624 23.4905
1 41.7137 40.7534 23.4371
1 44.8183 38.8312 20.7268
1 46.4033 41.6045 20.75
1 46.4142 43.5043 23.418
1 45.0022 40.6241 23.4774
1 47.9484 38.7831 20.6335
1 49.508 41.5394 20.8076
1 49.6869 43.5117 23.3291
1 48.0502 40.7255 23.3912
1 30.8148 47.233 21.0048
1 30.7256 49.0804 23.6208
1 32.3697 44.4812 20.9564
1 33.8006 47.1036 20.8963
1 33.7839 48.7704 23.5589
1 32.1783 46.1567 23.617
1 35.3249 44.3655 20.8154
1 36.923 47.1071 20.7306
1 36.9041 49.0578 23.2533
1 35.4176 46.2005 23.451
1 38.5078 44.3651 20.7446
1 40.0662 47.2483 20.6948
1 40.2856 48.9693 23.4132
1 38.5609 46.2305 23.4235
1 41.6279 44.4098 20.8489
1 43.2232 47.0928 20.7727
1 43.2525 48.8855 23.3825
1 41.6878 46.2192 23.4224
1 44.7075 44.3989 20.8337
1 46.3093 47.1492 20.8258
1 46.3763 49.0112 23.3646
1 44.8712 46.3239 23.3896
1 47.8774 44.451 20.7184
1 49.5272 47.1414 20.7139
1 49.6103 48.9458 23.3866
1 47.9837 46.2924 23.3449
1 32.2157 49.8786 20.9995
1 35.1952 49.913 20.8593
1 38.4336 49.9362 20.7515
1 41.6108 49.9331 20.5963
1 44.8518 49.9304 20.755
1 47.9063 49.7842 20.676
1 43.2339 30.806 26.1273
1 46.2503 30.8892 26.0541
1 37.1181 36.0682 26.2237
1 40.1901 36.1451 26.1201
1 41.6792 33.5321 26.0935
1 43.2342 36.1756 25.912
1 44.7828 33.5939 26.0228
1 46.4319 36.2176 25.8873
1 47.9277 33.4513 26.0463
1 49.5443 36.213 25.9225
1 33.8863 41.6368 25.9985
1 35.5682 38.8489 26.1331
1 36.9838 41.5407 26.167
1 38.5401 38.8278 26.0319
1 40.1025 41.6587 26.1084
1 41.749 38.897 26.1257
1 43.3616 41.7646 26.1228
1 44.9422 38.9701 26.0217
1 46.5872 41.732 26.1191
1 48.0475 38.928 25.9832
1 49.6967 41.7638 25.9779
1 30.6728 47.3012 26.1367
1 32.3588 44.3883 26.0701
1 33.7703 47.0186 26.2152
1 35.4123 44.3488 26.1144
1 36.8284 47.2077 26.119
1 38.4715 44.341 26.0947
1 40.0488 47.1221 26.1675
1 41.6468 44.4581 26.1073
1 43.3615 47.1955 26.0234
1 44.9522 44.5339 25.9919
1 46.5577 47.275 25.9681
1 48.1683 44.6094 25.9199
1 49.7075 47.1982 26.0018
1 32.2438 49.87 26.1333
1 35.3405 50.0065 25.9896
1 38.6406 49.9121 25.9314
1 41.7844 49.8907 26.0443
1 44.8944 49.9989 26.0355
1 48.0759 49.9261 25.9871
1 43.3009 32.6309 28.7655
1 46.5017 32.5831 28.6332
1 49.5313 32.4163 28.6933
1 37.0901 38.0035 28.7832
1 40.1795 38.0949 28.6402
1 38.6429 35.3821 28.7565
1 43.3567 38.0763 28.5735
1 41.7591 35.3645 28.7252
1 46.3976 38.0299 28.6268
1 44.8746 35.319 28.6401
1 49.6229 38.0517 28.4909
1 47.9739 35.3126 28.6164
1 33.8888 43.4925 28.6613
1 36.9242 43.5587 28.7273
1 35.4242 40.7348 28.7535
1 40.0864 43.5324 28.7317
1 38.5734 40.8002 28.6712
1 43.3723 43.589 28.6428
1 41.7433 40.8279 28.6797
1 46.5802 43.5372 28.6662
1 44.9381 40.7766 28.6901
1 49.6947 43.5166 28.6552
1 48.1255 40.8584 28.6616
1 30.6681 49.0677 28.8922
1 33.7413 49.0567 28.6754
1 32.2107 46.2705 28.8003
1 36.93 49.0212 28.5793
1 35.3584 46.2655 28.7682
1 40.2058 49.0226 28.7141
1 38.5312 46.3227 28.7458
1 43.3417 48.9805 28.7076
1 41.6574 46.2091 28.7477
1 46.4253 48.965 28.6133
1 44.977 46.3422 28.6444
1 49.8031 49.048 28.5356
1 48.0667 46.2948 28.7026
1 43.5852 32.5686 33.9957
1 46.2489 30.7629 31.2482
1 46.6165 32.5731 33.9657
1 49.4704 30.8029 31.4327
1 49.7558 32.4309 33.8853
1 37.052 36.2429 31.3801
1 36.8592 37.9067 33.9736
1 40.1983 36.1662 31.3593
1 40.1579 38.0042 34.0141
1 38.6198 35.2544 34.0329
1 41.8156 33.4737 31.5103
1 43.349 36.2294 31.3165
1 43.3665 38.0112 33.9364
1 41.823 35.2874 34.0046
1 44.9754 33.4951 31.2773
1 46.4876 36.2196 31.3624
1 46.4944 38.1062 33.7901
1 44.8803 35.323 34.0272
1 47.9957 33.4031 31.2564
1 49.6892 36.1509 31.2186
1 49.6329 38.0539 33.9141
1 48.0524 35.2824 33.8075
1 33.9659 41.7258 31.3516
1 33.8719 43.4693 33.9008
1 35.5615 38.9942 31.3763
1 37.086 41.6789 31.2615
1 37.0448 43.3944 33.9673
1 35.3998 40.6911 34.0082
1 38.6246 38.925 31.3767
1 40.2434 41.6529 31.4114
1 40.3122 43.4528 34.0293
1 38.5044 40.728 33.9321
1 41.7412 38.9368 31.2223
1 43.3463 41.6935 31.1901
1 43.5247 43.5038 33.8621
1 41.7882 40.7941 33.9234
1 44.8245 38.9228 31.1756
1 46.4484 41.6956 31.2783
1 46.6428 43.4628 33.8913
1 44.9206 40.7574 33.9391
1 48.0049 38.9457 31.1518
1 49.603 41.6971 31.3533
1 49.7354 43.6481 33.9594
1 48.1908 40.8407 33.903
1 30.6921 47.2069 31.3601
1 30.8345 49.0879 33.9899
1 32.3427 44.3818 31.3839
1 33.757 47.2046 31.3771
1 33.9138 49.0879 33.9017
1 32.2055 46.3315 33.9758
1 35.4294 44.3753 31.4085
1 36.9286 47.1724 31.3668
1 37.0604 49.0118 33.9572
1 35.3844 46.224 33.9583
1 38.6737 44.4365 31.4366
1 40.2106 47.1287 31.3067
1 40.1181 49.0443 33.9711
1 38.7244 46.2133 33.9212
1 41.7851 44.3909 31.294
1 43.3544 47.2186 31.1984
1 43.2476 49.0267 33.9636
1 41.9 46.1392 33.9976
1 44.9485 44.5152 31.2584
1 46.476 47.2831 31.3534
1 46.5447 48.9812 34.0121
1 44.9955 46.2485 33.9368
1 48.0624 44.5245 31.2829
1 49.6934 47.2281 31.2016
1 49.7221 49.0006 33.9326
1 48.1547 46.3381 33.7703
1 32.2319 49.8874 31.445
1 35.4337 49.8634 31.3281
1 38.5833 49.9295 31.2784
1 41.7072 49.9763 31.2858
1 44.8836 49.9386 31.4693
1 48.1231 50.0083 31.3356
1 43.4372 32.6403 39.0919
1 43.4305 30.7719 36.5612
1 46.6118 32.484 39.1662
1 46.6002 30.8602 36.5834
1 49.6788 32.5516 39.1331
1 37.083 36.1529 36.6656
1 36.9886 37.9917 39.2602
1 40.1464 36.0795 36.6394
1 40.1204 37.8237 39.1446
1 38.6341 35.2086 39.2286
1 41.9191 33.4429 36.5007
1 43.2991 36.1933 36.6578
1 43.2802 38.0075 39.199
1 41.7838 35.2267 39.2307
1 45.0767 33.4908 36.561
1 46.4593 36.2973 36.4991
1 46.5743 38.0277 39.3369
1 45.0771 35.2172 39.1643
1 48.1646 33.543 36.506
1 49.7371 36.1816 36.5718
1 49.6293 38.0235 39.1683
1 48.0895 35.2779 39.1776
1 33.9219 41.6482 36.6465
1 33.8947 43.4938 39.2488
1 35.4519 38.8845 36.5996
1 36.9201 41.6446 36.6808
1 37.1037 43.3672 39.2529
1 35.3035 40.712 39.3469
1 38.5906 38.7168 36.6074
1 40.1681 41.6469 36.6015
1 40.1407 43.4646 39.2363
1 38.5407 40.6064 39.1664
1 41.7437 38.8679 36.5561
1 43.4097 41.7739 36.6388
1 43.434 43.4782 39.3744
1 41.7638 40.7656 39.1939
1 44.9713 38.9663 36.6806
1 46.6261 41.6283 36.5548
1 46.5481 43.4831 39.1351
1 44.9543 40.7854 39.2494
1 48.1085 38.9575 36.5718
1 49.7845 41.7827 36.4526
1 49.7006 43.51 39.0185
1 48.0528 40.7471 39.1547
1 30.7894 47.2458 36.6796
1 30.9344 49.0683 39.2166
1 32.2896 44.5044 36.5993
1 33.7966 47.1277 36.513
1 33.9777 48.9963 39.1978
1 32.3232 46.2207 39.1263
1 35.4098 44.3665 36.6271
1 37.0392 47.075 36.5049
1 37.1383 48.8737 39.1467
1 35.4394 46.2505 39.2276
1 38.5008 44.3449 36.4995
1 40.185 47.0494 36.5729
1 40.1694 48.9883 39.1157
1 38.621 46.231 39.2357
1 41.8079 44.5026 36.7307
1 43.2903 47.2673 36.4776
1 43.3279 49.012 39.1562
1 41.7654 46.1972 39.2729
1 44.9615 44.476 36.697
1 46.6428 47.2231 36.6133
1 46.653 49.1225 39.1942
1 44.9738 46.2577 39.1643
1 48.0846 44.5239 36.533
1 49.731 47.2985 36.5841
1 49.8093 49.0545 39.2936
1 48.2425 46.3578 39.1989
1 32.4975 49.8818 36.5152
1 35.4669 49.9044 36.4998
1 38.644 49.8087 36.6037
1 41.716 49.9842 36.5835
1 44.9644 50.0696 36.5917
1 48.1879 50.0309 36.5009
1 46.3722 30.915 41.8681
1 49.4951 30.824 41.6665
1 37.0683 36.1948 41.857
1 40.1557 36.1654 41.8444
1 41.8568 33.4405 41.7008
1 43.3195 36.186 41.7369
1 44.9182 33.5485 41.7227
1 46.3955 36.241 41.8868
1 48.0241 33.4893 41.8098
1 49.6091 36.2201 41.8486
1 33.9343 41.6796 41.8897
1 35.371 38.923 41.9185
1 36.9613 41.5876 41.8531
1 38.5142 38.9208 41.8109
1 40.2247 41.518 41.8151
1 41.7072 38.7797 41.8073
1 43.3128 41.6311 41.7867
1 44.8492 38.9179 41.8126
1 46.627 41.6717 41.8376
1 48.0892 38.8776 41.8012
1 49.6991 41.6635 41.7801
1 30.6796 47.2873 41.6791
1 32.3081 44.5907 41.8897
1 33.797 47.2882 41.7798
1 35.4261 44.4392 41.7752
1 36.882 47.2065 41.7669
1 38.5519 44.4118 41.8194
1 40.0996 47.2729 41.7972
1 41.7472 44.4034 41.8895
1 43.2656 47.2261 41.7658
1 44.9906 44.4836 41.878
1 46.5157 47.2194 41.7571
1 48.1269 44.4167 41.743
1 49.7574 47.1917 41.8284
1 32.2485 49.9131 41.7502
1 35.3875 49.9731 41.8499
1 38.5008 50.0279 41.7573
1 41.7715 50.021 41.7817
1 45.0097 50.0014 41.6732
1 48.1726 50.0594 41.8258
1 43.5532 32.6236 44.3773
1 46.6675 32.5426 44.4376
1 49.7832 32.5442 44.4222
1 36.9963 38.0553 44.2873
1 40.1468 38.0626 44.3885
1 38.6383 35.3941 44.5504
1 43.3908 38.0445 44.4314
1 41.8071 35.3034 44.3023
1 46.5631 38.1637 44.3972
1 44.9736 35.3032 44.3931
1 49.7315 38.0584 44.3817
1 48.1293 35.2843 44.4035
1 33.9109 43.6439 44.3855
1 37.0031 43.4719 44.3927
1 35.4476 40.9166 44.4988
1 40.1271 43.4659 44.45
1 38.5318 40.806 44.383
1 43.322 43.5107 44.4142
1 41.6889 40.6958 44.4026
1 46.6402 43.5875 44.4463
1 44.955 40.8582 44.4406
1 49.7215 43.6656 44.3496
1 48.204 40.8153 44.4193
1 30.7292 49.0471 44.3728
1 33.7908 48.9902 44.3754
1 32.0936 46.3378 44.476
1 36.9597 49.0175 44.4392
1 35.4157 46.2999 44.3874
1 40.1068 49.0936 44.4149
1 38.5704 46.2372 44.3244
1 43.3459 49.1207 44.4626
1 41.7867 46.2566 44.4133
1 46.533 49.0532 44.4598
1 45.0119 46.335 44.5509
1 49.5747 49.0438 44.4516
1 48.0683 46.3645 44.4141
1 43.4883 32.7394 49.6444
1 46.5144 31.0715 46.8878
1 46.5681 32.6137 49.6952
1 49.6182 31.0286 47.0956
1 49.7673 32.7003 49.6548
1 37.1133 36.3618 47.0868
1 37.1026 38.0898 49.6664
1 40.2947 36.2292 46.9725
1 40.2502 38.1766 49.6729
1 38.8065 35.4597 49.6282
1 42.0043 33.4963 46.9568
1 43.4305 36.3086 47.0799
1 43.3464 38.1305 49.703
1 41.859 35.2676 49.6182
1 45.0728 33.6415 47.0486
1 46.5667 36.3345 46.95
1 46.5625 38.0739 49.7075
1 44.9869 35.4338 49.7121
1 48.1525 33.6118 47.1471
1 49.686 36.1947 47.0368
1 49.6479 38.0366 49.6335
1 48.0356 35.3555 49.7593
1 33.81 41.8141 47.01
1 33.792 43.6044 49.5909
1 35.4866 39.1136 46.9396
1 36.971 41.7488 47.0774
1 36.9079 43.5255 49.7357
1 35.3709 40.6596 49.5929
1 38.6414 38.961 46.9613
1 40.1571 41.7744 47.0682
1 40.1701 43.5983 49.6631
1 38.5598 40.7996 49.603
1 41.8534 38.9573 47.0778
1 43.3149 41.7293 47.0054
1 43.3554 43.6552 49.6242
1 41.7179 40.7633 49.6884
1 44.9826 38.9865 47.1242
1 46.6169 41.7517 46.9317
1 46.5266 43.6441 49.5839
1 44.9322 40.8543 49.5736
1 48.2067 38.9649 46.9686
1 49.7835 41.7301 46.992
1 49.7981 43.6918 49.5542
1 48.0576 40.9494 49.6062
1 30.665 47.3396 46.9482
1 30.7984 48.9891 49.6275
1 32.2428 44.5446 47.0405
1 33.776 47.2324 47.0864
1 33.8558 48.9188 49.6269
1 32.1228 46.2352 49.6402
1 35.407 44.4508 47.0182
1 36.9557 47.2497 47.0085
1 37.0241 49.0953 49.6953
1 35.4617 46.242 49.6324
1 38.491 44.4021 47.0648
1 40.1486 47.1878 47.0507
1 40.2108 49.2142 49.677
1 38.5911 46.4492 49.5785
1 41.8618 44.4287 47.0487
1 43.3383 47.2378 47.126
1 43.2869 49.0554 49.5995
1 41.7658 46.3227 49.593
1 44.9808 44.4528 47.0624
1 46.5256 47.159 47.1233
1 46.4939 49.0558 49.5582
1 44.9591 46.3455 49.6167
1 48.1749 44.5553 47.0038
1 49.6707 47.2282 46.9136
1 49.7005 49.1153 49.5763
1 48.1087 46.3035 49.6898
1 32.1726 50.0168 47.0195
1 35.3214 49.9683 47.0648
1 38.4511 49.9361 47.0237
1 41.6805 50.0247 47.0157
1 44.9295 49.9493 47.0175
1 48.0865 49.9695 47.0174
1 43.4623 32.5061 55.0145
1 52.9387 30.8985 52.0722
1 46.5559 32.5459 54.9089
1 56.0841 30.7607 52.392
1 49.7786 32.5328 54.933
1 37.1791 36.3447 52.1598
1 36.9823 38.0278 54.8731
1 40.2796 36.3055 52.2787
1 40.2169 37.9875 54.918
1 38.518 35.4612 54.8271
1 41.8655 33.5647 52.2233
1 43.3668 36.2577 52.3111
1 43.3676 38.1206 55.0407
1 41.7804 35.2021 54.829
1 44.9264 33.5493 52.3119
1 46.5039 36.2499 52.376
1 46.533 38.1082 54.9251
1 44.905 35.3326 54.9806
1 48.0469 33.5105 52.2414
1 49.6123 36.2937 52.3319
1 49.6832 38.06 54.9078
1 48.0616 35.2814 55.0455
1 34.0365 41.9026 52.1629
1 33.8259 43.4982 54.9777
1 35.3456 39.0024 52.2976
1 37.0897 41.6337 52.3189
1 36.9885 43.4984 54.9703
1 35.4747 40.7449 54.8449
1 38.6374 38.9698 52.2991
1 40.2144 41.6423 52.1938
1 40.0878 43.5068 54.8611
1 38.6262 40.6805 54.9522
1 41.8288 38.9356 52.3952
1 43.378 41.6763 52.2224
1 43.3461 43.5956 54.9683
1 41.7868 40.8727 54.9878
1 45.0063 38.959 52.2651
1 46.6398 41.7797 52.3293
1 46.5891 43.6392 54.9677
1 44.9357 40.8808 54.8911
1 48.061 38.9755 52.2134
1 49.8501 41.8781 52.1775
1 49.7833 43.6682 54.9349
1 48.0935 40.7668 54.9689
1 30.8843 47.3654 52.4393
1 30.8209 49.129 54.9819
1 32.3524 44.5509 52.2628
1 33.806 47.3118 52.3571
1 33.8143 49.0835 55.0028
1 32.3441 46.3423 54.9814
1 35.3584 44.5308 52.3664
1 36.9926 47.3035 52.3163
1 36.9517 49.0926 54.9731
1 35.4501 46.3499 54.9084
1 38.5962 44.3277 52.2338
1 40.1254 47.1734 52.1419
1 40.1784 49.0492 54.8012
1 38.4928 46.3009 54.7812
1 41.789 44.432 52.2092
1 43.2811 47.1135 52.1894
1 43.3032 49.0134 54.8723
1 41.5898 46.1953 54.8086
1 44.9559 44.3878 52.2629
1 46.5048 47.1563 52.2618
1 46.5105 49.1005 54.9143
1 44.8912 46.2777 54.783
1 48.1291 44.4763 52.3176
1 49.7139 47.3546 52.195
1 49.6887 49.1353 54.9281
1 48.1305 46.378 54.9483
1 32.1653 50.0406 52.2108
1 35.3551 49.9882 52.2747
1 38.5891 50.0562 52.2457
1 41.8124 49.8574 52.2851
1 44.931 49.849 52.2385
1 48.2132 49.9971 52.1926
1 43.5701 32.6699 60.1967
1 46.313 30.9738 57.5986
1 46.6664 32.5662 60.1345
1 49.3466 30.7779 57.4531
1 49.8188 32.4977 60.0262
1 37.0392 36.1087 57.4653
1 36.9445 37.901 60.1383
1 40.0286 36.0404 57.5553
1 40.1113 37.9382 60.1517
1 38.5129 35.3463 60.2195
1 41.7926 33.3732 57.5531
1 43.2828 36.1901 57.5296
1 43.3045 37.9801 60.1352
1 41.7082 35.2372 60.043
1 44.9145 33.5622 57.5833
1 46.5367 36.3052 57.5339
1 46.5645 38.0769 60.1989
1 44.9843 35.329 60.1772
1 48.1181 33.5241 57.4259
1 49.735 36.3446 57.4531
1 49.7696 38.0125 60.1142
1 48.2016 35.26 60.0102
1 33.9384 41.6886 57.4013
1 33.9056 43.4697 60.1962
1 35.4716 39.1174 57.4848
1 36.9425 41.7286 57.5007
1 37.0005 43.4818 60.1144
1 35.3852 40.6708 60.1683
1 38.5806 38.8603 57.499
1 40.0783 41.6124 57.5821
1 40.1304 43.5189 60.0684
1 38.5174 40.7084 60.1843
1 41.7081 38.8521 57.52
1 43.2174 41.6159 57.5658
1 43.271 43.4899 60.2087
1 41.7514 40.7628 60.156
1 44.9203 38.9818 57.472
1 46.5594 41.7408 57.4995
1 46.4966 43.601 60.2014
1 44.9006 40.8089 60.1045
1 48.1352 38.9815 57.6141
1 49.7928 41.707 57.4966
1 49.7056 43.6648 60.1245
1 48.0262 40.9042 60.1901
1 30.6693 47.4405 57.5426
1 30.7927 48.9506 60.3771
1 32.1894 44.5063 57.4896
1 33.8166 47.1813 57.61
1 33.8489 49.0375 60.1432
1 32.1888 46.1528 60.1632
1 35.3059 44.4607 57.5687
1 37.011 47.1862 57.5222
1 37.0416 49.0619 60.1258
1 35.4169 46.2047 60.1965
1 38.4452 44.524 57.4292
1 40.0746 47.2274 57.3632
1 40.2151 49.0534 60.1036
1 38.5735 46.2411 60.0649
1 41.6127 44.4518 57.496
1 43.3781 47.2091 57.3743
1 43.2467 49.1552 60.1635
1 41.6706 46.2661 60.1638
1 44.8245 44.3078 57.6426
1 46.4355 47.1615 57.4562
1 46.4907 49.0504 60.1083
1 44.7689 46.4031 60.0768
1 48.2772 44.6048 57.4764
1 49.7058 47.4195 57.6109
1 49.798 49.2842 60.1591
1 48.0586 46.4953 60.2705
1 32.289 50.0665 57.6822
1 35.4335 49.9932 57.5332
1 38.6643 49.9275 57.5511
1 41.7745 49.9086 57.4664
1 45.0616 49.9972 57.4654
1 48.1177 50.135 57.5965
1 43.5194 32.5659 65.4082
1 46.2233 30.961 62.8193
1 46.6876 32.5884 65.423
1 49.4386 30.7862 62.7869
1 49.7381 32.6345 65.2722
1 37.1766 36.2922 62.8251
1 36.982 38.2281 65.4529
1 40.1363 36.1716 62.7601
1 40.2095 38.1292 65.4225
1 38.6742 35.6838 65.5642
1 41.7175 33.4998 62.7732
1 43.3769 36.1928 62.7523
1 43.3753 37.9499 65.3973
1 41.845 35.2664 65.3298
1 44.8909 33.5732 62.8145
1 46.6226 36.2287 62.7279
1 46.6288 37.9732 65.3607
1 44.9957 35.2956 65.408
1 47.9867 33.5044 62.6784
1 49.712 36.2142 62.6125
1 49.75 38.1271 65.3861
1 48.0829 35.2675 65.3082
1 33.8607 41.7936 62.8656
1 33.7186 43.5815 65.3771
1 35.4267 38.8331 62.7812
1 36.9983 41.6073 62.7424
1 36.9237 43.5842 65.4543
1 35.3586 40.9081 65.4034
1 38.5629 38.8661 62.7362
1 40.182 41.629 62.7682
1 40.1691 43.4712 65.4235
1 38.5248 40.7466 65.3473
1 41.7647 38.8409 62.8181
1 43.3012 41.6507 62.8207
1 43.2403 43.5267 65.2742
1 41.674 40.841 65.3603
1 44.9314 38.9107 62.8535
1 46.4766 41.7103 62.7867
1 46.5191 43.5812 65.3023
1 44.9676 40.7935 65.4076
1 48.1524 38.9765 62.7567
1 49.7719 41.6177 62.8575
1 49.7183 43.608 65.4215
1 48.0875 40.8321 65.4391
1 30.8047 47.204 62.8606
1 30.6258 49.1597 65.4757
1 32.4482 44.4944 62.7666
1 33.7957 47.1344 62.8019
1 33.7265 49.1165 65.4574
1 32.1608 46.4555 65.4295
1 35.4903 44.3314 62.8763
1 36.9395 47.1488 62.7163
1 37.0228 49.0422 65.3996
1 35.2936 46.3185 65.3734
1 38.5609 44.5101 62.8048
1 40.1353 47.1897 62.7424
1 40.058 48.94 65.3437
1 38.5118 46.255 65.4008
1 41.6934 44.4679 62.7843
1 43.2853 47.2732 62.8202
1 43.1997 49.1587 65.3049
1 41.6783 46.3212 65.4548
1 44.8556 44.5065 62.7875
1 46.4644 47.2793 62.7097
1 46.5173 48.9994 65.4237
1 44.8694 46.3973 65.4377
1 48.1047 44.5068 62.7535
1 49.7187 47.2525 62.8075
1 49.6874 49.0159 65.4426
1 48.0943 46.3768 65.3152
1 32.2621 49.9142 62.879
1 35.3613 49.9728 62.8098
1 38.5411 49.9407 62.7435
1 41.7058 50.0341 62.7419
1 44.9273 49.981 62.8326
1 48.125 49.9683 62.8194
1 43.5137 32.5498 70.6786
1 46.5284 30.7978 68.1522
1 46.768 32.6178 70.5632
1 49.6307 30.9398 67.868
1 49.9146 32.4916 70.5511
1 37.0698 36.4369 68.0888
1 36.9219 38.1331 70.6898
1 40.2369 36.4084 68.1559
1 40.1804 38.1093 70.7366
1 38.6134 35.6636 70.5855
1 41.9473 33.6043 68.0237
1 43.3319 36.2209 68.0088
1 43.3447 38.18 70.5924
1 41.8666 35.2308 70.6346
1 44.9371 33.4736 68.1246
1 46.5092 36.1584 68.0281
1 46.5517 38.0836 70.5513
1 45.0237 35.2945 70.6135
1 48.1017 33.5748 67.9251
1 49.6697 36.2222 67.8986
1 49.7957 38.0764 70.5288
1 48.2158 35.3008 70.6256
1 33.6621 41.8475 68.0358
1 33.6254 43.5716 70.5876
1 35.3585 39.0023 68.1061
1 36.8138 41.6984 68.0071
1 36.8828 43.5004 70.6416
1 35.2821 40.833 70.603
1 38.5801 39.0529 68.1216
1 40.1127 41.79 67.9343
1 40.1436 43.4678 70.5114
1 38.5461 40.7994 70.7334
1 41.7708 39.1818 67.9573
1 43.4554 41.733 67.9272
1 43.3926 43.6317 70.6911
1 41.764 40.8904 70.5724
1 44.9229 38.9873 68.0119
1 46.4313 41.6709 68.1318
1 46.5255 43.5069 70.6925
1 44.9223 40.912 70.6358
1 48.1373 38.9957 68.0347
1 49.6535 41.7363 67.9039
1 49.8094 43.6656 70.6769
1 48.0597 40.7881 70.6109
1 30.7474 47.3597 68.09
1 30.6053 49.1923 70.6142
1 32.2595 44.73 67.987
1 33.774 47.3019 68.0743
1 33.7353 49.0291 70.63
1 32.2321 46.4802 70.7077
1 35.2879 44.5262 68.068
1 36.987 47.2 68.0559
1 36.9633 48.9987 70.6671
1 35.3447 46.2596 70.7819
1 38.4906 44.3646 68.0704
1 40.0588 47.1078 68.0602
1 40.1196 49.0106 70.7473
1 38.5743 46.194 70.681
1 41.8059 44.4809 67.9717
1 43.3361 47.1457 67.987
1 43.2643 48.9509 70.6289
1 41.7443 46.292 70.5743
1 44.9174 44.388 67.9792
1 46.479 47.2094 67.9785
1 46.4781 49.0281 70.5808
1 44.9565 46.3482 70.5827
1 48.12 44.4238 68.0786
1 49.579 47.1311 68.0134
1 49.6334 49.0676 70.6141
1 48.0622 46.313 70.5963
1 32.1066 50.096 68.0548
1 35.4226 49.9485 68.0196
1 38.6175 49.9291 68.0517
1 41.7445 49.8422 68.0639
1 44.8621 49.8986 67.8689
1 48.0566 49.9225 68.005
1 43.4777 32.4924 75.6917
1 46.3869 30.9974 73.1594
1 46.5183 32.5108 75.7915
1 49.5549 30.9027 73.1175
1 49.7242 32.6788 75.9608
1 37.1261 36.2345 73.2203
1 37.0001 38.0336 75.9408
1 40.2015 36.2825 73.2969
1 40.1694 37.8895 75.9405
1 38.4712 35.4344 75.8807
1 41.9125 33.5396 73.2735
1 43.3695 36.2878 73.3099
1 43.3326 37.9231 75.79
1 41.6437 35.1719 75.9022
1 45.0028 33.6923 73.0671
1 46.5154 36.2224 73.2697
1 46.5754 38.0192 75.8097
1 44.8973 35.2242 75.926
1 48.1839 33.5783 73.2157
1 49.7792 36.2113 73.2848
1 49.7256 37.9712 75.7817
1 48.1007 35.2517 75.8749
1 33.645 41.7212 73.3497
1 33.7329 43.5444 75.9579
1 35.3826 38.9938 73.4209
1 36.8745 41.6125 73.1623
1 37.0186 43.4624 75.7788
1 35.3946 40.8385 75.9199
1 38.4801 38.9461 73.3276
1 40.0864 41.6202 73.2616
1 40.0776 43.4882 75.9017
1 38.5634 40.7408 75.9074
1 41.7921 38.9677 73.2572
1 43.2788 41.7028 73.1597
1 43.3924 43.4503 75.8729
1 41.7633 40.6789 75.8201
1 45.0298 38.9071 73.2358
1 46.5784 41.6675 73.3146
1 46.4817 43.5328 75.8326
1 44.8773 40.7453 75.9113
1 48.1813 38.8835 73.2062
1 49.6967 41.7774 73.2837
1 49.599 43.6242 75.9408
1 48.1691 40.725 75.9172
1 30.6727 47.3283 73.4117
1 30.757 49.2047 75.9943
1 32.2858 44.552 73.2711
1 33.8073 47.2122 73.3002
1 33.757 49.0394 75.9649
1 32.2532 46.3804 75.9946
1 35.3178 44.3912 73.3394
1 36.8758 47.1104 73.3883
1 36.8698 48.9673 75.9326
1 35.2828 46.232 75.9648
1 38.5216 44.3234 73.2444
1 40.0593 47.1333 73.2483
1 40.242 48.9601 75.9049
1 38.5682 46.2099 75.9043
1 41.6861 44.3243 73.2922
1 43.3332 47.0834 73.3321
1 43.4037 49.0094 75.9133
1 41.7174 46.1771 75.9584
1 44.9699 44.4155 73.3052
1 46.5068 47.2374 73.2122
1 46.5292 49.0864 75.9979
1 44.9378 46.2643 75.9184
1 48.1484 44.4447 73.2825
1 49.6962 47.3799 73.1914
1 49.6384 49.1835 75.9581
1 48.022 46.3186 75.911
1 32.1764 49.8031 73.3054
1 35.3796 49.9041 73.3084
1 38.525 49.8601 73.335
1 41.8292 49.9239 73.2423
1 44.9881 49.9994 73.3012
1 48.0482 49.9617 73.3579
1 43.3249 32.5853 81.0637
1 46.4941 30.8109 78.3289
1 46.6329 32.5369 81.1094
1 49.7658 30.8552 78.5949
1 49.7618 32.5683 81.1508
1 37.0839 36.2004 78.6855
1 36.9242 38.0585 81.1342
1 40.2242 36.105 78.534
1 40.1702 37.9396 81.0906
1 38.7645 35.3083 81.2022
1 41.8411 33.4974 78.3783
1 43.3506 36.1306 78.4868
1 43.3611 37.9874 81.0634
1 41.7027 35.1625 81.1232
1 44.8812 33.4211 78.4705
1 46.5174 36.2495 78.4747
1 46.5539 38.0151 81.1089
1 44.9762 35.1722 80.9905
1 48.1793 33.5439 78.6064
1 49.6718 36.3266 78.512
1 49.6657 38.046 81.1799
1 48.0322 35.2426 81.1189