5538
Atoms. Timestep: 10000
1 43.2598 30.9493 0.190267
1 46.4055 30.9554 5.46822
1 46.4871 30.7784 0.316951
1 49.6504 30.8189 5.40769
1 49.5214 30.7642 0.337785
1 38.4442 37.1832 2.78407
1 38.574 39.0424 0.233685
1 40.1784 34.619 2.7618
1 40.1967 36.3349 0.199945
1 38.5899 33.7195 0.223053
1 40.1206 31.1069 0.339964
1 43.3435 34.5495 2.79824
1 43.3131 36.2868 0.201387
1 41.7291 33.6177 0.273513
1 44.781 31.7499 2.90158
1 46.4806 34.465 2.86924
1 46.4752 36.2506 0.269619
1 44.9127 33.4325 0.289665
1 47.9863 31.7192 2.90936
1 49.6539 34.4539 2.80062
1 49.642 36.1785 0.0911449
1 47.9991 33.4626 0.232124
1 35.3601 42.7027 2.81664
1 35.4932 44.6481 0.184815
1 36.9262 39.894 2.84112
1 38.5296 42.5476 2.78962
1 38.5864 44.5372 0.216557
1 37.0257 41.8811 0.18603
1 40.002 39.959 2.87945
1 41.6892 42.7158 2.82979
1 41.7619 44.5697 0.226447
1 40.1204 41.8392 0.222657
1 41.6197 37.3677 2.84714
1 43.2873 40.0115 2.7847
1 43.2661 41.7208 0.209056
1 41.6914 39.0182 0.11264
1 44.8828 37.1924 2.88997
1 46.5692 39.9052 2.8449
1 46.4349 41.6614 0.252097
1 44.9241 38.9341 0.248274
1 48.0488 37.1483 2.90087
1 49.7497 39.9589 2.80913
1 49.526 41.6771 0.162111
1 48.1533 38.8575 0.264861
1 32.2425 48.247 3.03358
1 32.2594 50.1237 0.300511
1 33.7544 45.5475 2.96699
1 35.3966 48.197 2.87397
1 35.2919 50.0889 0.452433
1 33.8058 47.34 0.277606
1 36.9041 45.4507 2.79201
1 38.47 48.1902 2.82339
1 38.557 50.0756 0.20482
1 36.9306 47.3606 0.204449
1 40.0843 45.4493 2.81909
1 41.8121 48.1525 2.77341
1 41.7192 50.101 0.329976
1 40.0299 47.368 0.207005
1 43.3125 45.4348 2.8826
1 45.0051 48.1879 2.84092
1 44.9204 49.9224 0.184836
1 43.2997 47.2278 0.232419
1 44.941 42.7257 2.88701
1 46.5101 45.4185 2.82279
1 46.4797 47.2616 0.232654
1 44.9737 44.421 0.218037
1 48.152 42.6651 2.77355
1 49.667 45.2807 2.70137
1 49.7446 47.1446 0.185029
1 48.0473 44.5296 0.0614961
1 33.772 50.9763 3.01038
1 37.0142 51.0338 2.92857
1 40.2152 50.9807 2.87263
1 43.4196 50.9571 2.8072
1 46.489 50.8458 2.83437
1 48.1474 48.0707 2.80439
1 43.4532 32.7449 8.26209
1 48.0943 30.0818 7.8867
1 46.4624 32.8059 8.15981
1 51.1405 29.9445 8.01087
1 49.5937 32.6804 8.0647
1 37.1615 36.4135 5.53481
1 37.09 38.1251 8.18461
1 40.0871 36.2527 5.57659
1 40.1797 38.1345 8.10416
1 38.6444 35.4133 8.18457
1 41.6483 31.8632 2.7822
1 43.3442 36.315 5.52571
1 43.385 38.1661 8.05254
1 41.7891 35.4711 8.23324
1 44.8063 33.5055 5.43367
1 46.5415 36.2284 5.53273
1 46.4419 38.1312 8.11135
1 44.8771 35.4309 8.05155
1 48.0288 33.4491 5.45286
1 49.63 36.1938 5.50358
1 49.6237 38.0709 8.10727
1 48.0119 35.3189 8.13104
1 33.9512 41.9064 5.51829
1 33.8839 43.6579 8.08943
1 35.4873 39.0631 5.3994
1 36.9876 41.8355 5.48952
1 37.0293 43.715 8.17668
1 35.4706 40.8038 8.04375
1 38.6928 39.0512 5.54101
1 40.0936 41.807 5.44319
1 40.213 43.6791 8.06133
1 38.6127 40.785 8.09368
1 41.8045 39.0551 5.42261
1 43.3619 41.744 5.45848
1 43.3979 43.612 7.95421
1 41.7048 40.8755 8.03719
1 44.9509 38.9774 5.43304
1 46.4762 41.7345 5.56975
1 46.4333 43.533 8.05195
1 44.884 40.8578 8.08582
1 48.1148 38.9044 5.42577
1 49.7929 41.6966 5.43911
1 49.709 43.418 8.0274
1 48.0901 40.7267 8.02387
1 30.7434 47.3898 5.622
1 30.8202 49.1277 8.22472
1 32.3813 44.6273 5.59385
1 33.8491 47.4081 5.64156
1 33.8327 49.1639 8.18522
1 32.3492 46.4405 8.24238
1 35.4913 44.5692 5.50703
1 36.9773 47.217 5.45237
1 37.0655 49.0139 7.9157
1 35.3808 46.2808 8.07828
1 38.6586 44.6338 5.47301
1 40.2383 47.2758 5.37034
1 40.1629 49.1781 8.07276
1 38.5988 46.3415 8.05251
1 41.7687 44.53 5.42419
1 43.3062 47.2298 5.4552
1 43.375 49.1692 7.96627
1 41.7995 46.3208 8.02324
1 45.0336 44.5395 5.37867
1 46.5199 47.2934 5.39867
1 46.5671 49.0617 7.91013
1 44.895 46.3037 8.0345
1 48.1659 44.4843 5.34315
1 49.6611 47.1944 5.41637
1 49.6128 48.9514 8.14147
1 48.0746 46.1514 7.97122
1 32.3034 50.1471 5.62613
1 35.4511 50.1406 5.51281
1 38.7229 49.9913 5.49213
1 41.908 50.0117 5.42599
1 44.9081 49.9964 5.48897
1 48.1042 49.9199 5.39138
1 43.3886 32.4516 13.2784
1 46.6418 30.8311 10.4775
1 46.5535 32.4107 13.3838
1 49.6383 30.913 10.59
1 49.7001 32.5286 13.3754
1 37.2302 36.2413 10.8383
1 36.9073 38.0213 13.3635
1 40.2791 36.3061 10.8017
1 40.1894 37.9629 13.36
1 38.7827 35.2846 13.3394
1 41.7983 33.5379 10.8614
1 43.3732 36.2254 10.6664
1 43.394 38.0649 13.3688
1 41.9027 35.251 13.3855
1 44.9808 33.4771 10.7771
1 46.4536 36.1652 10.6791
1 46.484 38.0098 13.2144
1 44.9741 35.2358 13.3459
1 48.0731 33.5436 10.6635
1 49.7346 36.1905 10.6744
1 49.6546 38.0096 13.2115
1 48.1181 35.2644 13.3106
1 33.8905 41.8179 10.7434
1 33.8822 43.624 13.3641
1 35.4692 39.0221 10.8226
1 37.0101 41.7019 10.8098
1 36.9975 43.563 13.3747
1 35.4435 40.8073 13.4158
1 38.5648 38.9374 10.7667
1 40.1185 41.6732 10.6968
1 40.1708 43.4385 13.3152
1 38.6127 40.7371 13.3286
1 41.8042 39.0406 10.5588
1 43.3955 41.8494 10.6254
1 43.2562 43.6221 13.303
1 41.8 40.7868 13.2516
1 44.841 38.9715 10.6997
1 46.6196 41.7293 10.6032
1 46.4858 43.5243 13.2351
1 44.9223 40.8387 13.2821
1 48.0855 39.0132 10.622
1 49.7882 41.6457 10.6579
1 49.7013 43.422 13.2613
1 48.0393 40.7243 13.3103
1 30.6977 47.1829 10.8302
1 30.7317 48.9886 13.2526
1 32.3307 44.5154 10.7069
1 33.8387 47.3482 10.7163
1 33.8234 49.0793 13.3346
1 32.2183 46.2621 13.3038
1 35.3058 44.4541 10.8021
1 37.0287 47.3057 10.6635
1 36.9621 49.0253 13.3697
1 35.3141 46.2672 13.3281
1 38.6999 44.4865 10.7407
1 40.1562 47.2233 10.7132
1 40.1581 49.0615 13.1692
1 38.5951 46.2562 13.3009
1 41.7585 44.5191 10.6627
1 43.3899 47.3115 10.6285
1 43.3051 49.0922 13.2236
1 41.7423 46.2847 13.2209
1 45.0359 44.5344 10.6509
1 46.5992 47.2449 10.6043
1 46.5591 48.9978 13.2564
1 44.8582 46.439 13.1937
1 48.1337 44.486 10.5227
1 49.6987 47.2107 10.7761
1 49.7835 48.9554 13.3341
1 48.0269 46.3378 13.3558
1 32.2804 49.9574 10.8334
1 35.4959 49.947 10.7256
1 38.5799 50.067 10.7463
1 41.6988 50.0857 10.6072
1 44.9591 49.9503 10.6036
1 48.0871 49.9833 10.7164
1 43.4856 32.6156 18.3594
1 43.5366 30.7054 15.8653
1 46.6309 32.5165 18.4479
1 46.6296 30.7059 15.9628
1 49.7364 32.6177 18.5124
1 37.1917 36.2327 15.8442
1 37.0571 38.0013 18.4442
1 40.2538 36.198 15.9494
1 40.162 37.9595 18.5761
1 38.6541 35.2871 18.5569
1 41.9343 33.4412 15.9036
1 43.4057 36.1193 15.9506
1 43.4103 37.9814 18.4995
1 41.8154 35.2461 18.4836
1 45.0516 33.486 15.902
1 46.6232 36.175 15.9717
1 46.6436 37.9929 18.5515
1 45.0539 35.2319 18.5178
1 48.2198 33.4646 15.8958
1 49.7658 36.221 15.8416
1 49.825 38.0779 18.4647
1 48.2476 35.3297 18.5121
1 33.9697 41.7849 15.9421
1 33.8425 43.5326 18.4242
1 35.5153 38.9562 15.9315
1 37.0193 41.7046 15.9534
1 36.9677 43.4822 18.5867
1 35.4745 40.7887 18.5318
1 38.5969 38.995 15.9508
1 40.1799 41.7223 15.9698
1 40.0969 43.6227 18.6647
1 38.6078 40.6747 18.5495
1 41.8608 38.9872 15.9048
1 43.3985 41.7001 15.9239
1 43.3922 43.5488 18.4824
1 41.7904 40.7478 18.4715
1 45.0429 38.952 15.8495
1 46.5795 41.6398 15.8205
1 46.5458 43.5079 18.4635
1 44.9909 40.7157 18.5137
1 48.1044 38.8734 15.7534
1 49.6837 41.6475 15.8104
1 49.7591 43.4849 18.449
1 48.1088 40.7793 18.4059
1 30.7429 47.2346 15.9115
1 30.8297 49.0275 18.4929
1 32.2355 44.5197 15.9324
1 33.8017 47.1475 15.9649
1 33.8493 49.0767 18.5343
1 32.2518 46.1577 18.4494
1 35.3777 44.4808 15.8731
1 36.957 47.1678 16.0255
1 37.0173 49.0787 18.4924
1 35.3476 46.2393 18.5634
1 38.6006 44.393 15.951
1 40.1682 47.2075 15.8863
1 40.1309 49.0324 18.5391
1 38.6527 46.3214 18.4723
1 41.727 44.5115 15.8303
1 43.3243 47.2463 15.9047
1 43.2731 49.0681 18.5191
1 41.6924 46.3195 18.3845
1 44.8768 44.4892 15.8414
1 46.4222 47.1544 15.9633
1 46.4696 48.9835 18.4956
1 44.9531 46.323 18.5008
1 48.1 44.3471 15.8809
1 49.6498 47.0706 15.8394
1 49.6656 49.027 18.4073
1 48.121 46.2441 18.4569
1 32.1949 50.0954 15.8662
1 35.4356 49.962 15.9151
1 38.6745 49.8371 15.9262
1 41.724 49.9117 15.9233
1 44.9493 49.9574 15.9271
1 48.0514 49.9222 15.8205
1 43.4585 32.3712 23.7974
1 46.7119 30.7352 21.1707
1 46.5748 32.3962 23.7776
1 49.934 30.8 20.9657
1 49.7225 32.3942 23.6663
1 37.0529 36.1822 20.9923
1 37.0343 37.9835 23.5998
1 40.2084 36.112 21.0961
1 40.2238 37.9447 23.6627
1 38.5708 35.331 23.6071
1 42.0456 33.3978 21.0783
1 43.4149 36.2078 21.053
1 43.4362 37.9815 23.6264
1 41.7708 35.219 23.6404
1 45.0653 33.3439 21.1405
1 46.6775 36.1819 21.1243
1 46.6008 37.9434 23.6328
1 45.0103 35.1976 23.6599
1 48.1873 33.4487 21.0466
1 49.7484 36.1175 21.1593
1 49.7283 37.9623 23.787
1 48.2235 35.1464 23.6914
1 33.9352 41.7243 21.0395
1 33.8306 43.5412 23.6744
1 35.4721 38.9425 21.0016
1 37.0217 41.6302 21.2556
1 36.9335 43.6011 23.6639
1 35.3586 40.7142 23.7553
1 38.6423 38.8113 21.1381
1 40.1717 41.6223 21.2131
1 40.2184 43.5041 23.7647
1 38.608 40.8295 23.7222
1 41.76 38.8834 21.14
1 43.3032 41.7705 21.0156
1 43.3237 43.4508 23.7483
1 41.7776 40.5853 23.7909
1 44.9677 38.9531 21.1226
1 46.5507 41.6897 21.1082
1 46.599 43.5208 23.7172
1 44.92 40.7219 23.7028
1 48.187 38.9077 21.0946
1 49.8074 41.598 21.0466
1 49.7779 43.5421 23.6142
1 48.1957 40.7474 23.7134
1 30.6732 47.1887 21.0081
1 30.6613 49.051 23.639
1 32.3041 44.4675 21.1636
1 33.9161 47.124 21.0529
1 33.742 49.1105 23.7162
1 32.2974 46.3618 23.563
1 35.3518 44.4396 21.0524
1 37.0112 47.199 20.9429
1 36.9092 48.9898 23.6815
1 35.3751 46.3043 23.6677
1 38.5187 44.4305 21.0969
1 40.2091 47.2155 21.1137
1 40.1242 49.0159 23.6758
1 38.5255 46.2782 23.5855
1 41.7896 44.4044 21.1329
1 43.3936 47.2381 21.1294
1 43.2515 49.061 23.6518
1 41.7152 46.2789 23.7671
1 44.9131 44.4685 21.0748
1 46.5258 47.1219 21.1287
1 46.5256 48.9293 23.7754
1 44.8667 46.2818 23.7505
1 48.1774 44.3406 21.0598
1 49.7205 47.1303 21.0447
1 49.8021 48.9844 23.6002
1 48.078 46.3843 23.6771
1 32.2649 49.8682 21.0663
1 35.3988 49.9422 21.197
1 38.6026 49.8926 21.1444
1 41.7749 49.9494 21.1824
1 45.0075 49.9439 21.0639
1 48.1098 49.976 21.1845
1 43.6054 30.6346 26.4325
1 46.6217 30.5689 26.3668
1 37.0156 36.2969 26.2661
1 40.1759 36.1151 26.2575
1 41.91 33.3132 26.2567
1 43.3086 36.1058 26.2812
1 45.0109 33.3907 26.2844
1 46.5383 36.1033 26.1931
1 48.1391 33.3367 26.3193
1 49.61 36.0163 26.3003
1 33.8288 41.8713 26.2423
1 35.4218 39.08 26.3194
1 37.0086 41.6344 26.227
1 38.5567 38.9251 26.2432
1 40.1175 41.6635 26.3707
1 41.7949 38.8456 26.2349
1 43.3967 41.6422 26.3162
1 44.9098 38.8031 26.296
1 46.5595 41.7254 26.3634
1 48.2265 38.8353 26.322
1 49.8299 41.6951 26.2365
1 30.7403 47.2146 26.2427
1 32.3003 44.6588 26.1901
1 33.7561 47.1787 26.2926
1 35.4607 44.4975 26.2807
1 37.0518 47.175 26.2032
1 38.5662 44.4662 26.3409
1 40.3027 47.1733 26.3488
1 41.6872 44.3613 26.2649
1 43.3747 47.204 26.3067
1 44.9292 44.3934 26.3319
1 46.5462 47.1655 26.3654
1 48.1437 44.5071 26.2773
1 49.7275 47.2429 26.3953
1 32.2162 49.9239 26.3015
1 35.3889 49.8888 26.2913
1 38.6023 49.8961 26.3259
1 41.8098 49.9479 26.3223
1 44.8835 49.9492 26.3477
1 48.1463 49.9102 26.3336
1 43.4785 32.5305 28.8651
1 46.7107 32.5135 28.8665
1 49.7921 32.3765 28.8956
1 36.9988 37.9908 28.8652
1 40.1632 37.9965 28.8451
1 38.6944 35.2449 28.8296
1 43.2407 38.0065 28.9443
1 41.781 35.2197 28.8019
1 46.5431 37.9204 28.8949
1 44.9211 35.2645 28.7748
1 49.7814 37.8491 28.9439
1 48.1808 35.1571 28.9484
1 33.7749 43.6596 28.7702
1 36.94 43.5384 28.9309
1 35.4696 40.8959 28.8857
1 40.093 43.4596 28.904
1 38.5926 40.7955 28.8561
1 43.3004 43.4897 28.8329
1 41.6478 40.5642 28.9463
1 46.5042 43.4492 28.9348
1 44.9294 40.7692 28.9199
1 49.6843 43.4947 28.8902
1 48.0421 40.7385 28.984
1 30.7258 49.1267 28.828
1 33.8039 48.9726 28.9737
1 32.2547 46.4308 28.9245
1 36.9276 48.9487 28.8165
1 35.421 46.2232 28.8761
1 40.0814 49.0277 28.8717
1 38.5901 46.3004 28.8137
1 43.3373 48.9591 28.9415
1 41.7323 46.2442 28.9245
1 46.4592 49.0886 28.9862
1 44.8904 46.3127 28.8837
1 49.7322 49.0649 29.0277
1 48.0454 46.359 28.9364
1 43.4588 32.5701 33.9145
1 46.8872 30.7564 31.4425
1 46.5523 32.4021 33.979
1 50.0114 30.5273 31.4015
1 49.6593 32.3282 33.965
1 37.2171 36.1754 31.4075
1 36.9859 38.0479 34.0014
1 40.1181 36.148 31.4554
1 40.078 37.9898 34.1308
1 38.5102 35.3379 34.0618
1 41.8314 33.5168 31.3754
1 43.4744 36.0353 31.4613
1 43.1354 37.8114 34.0609
1 41.6786 35.1013 34.0192
1 45.0342 33.3962 31.3895
1 46.5471 36.0988 31.5196
1 46.4452 37.98 34.1499
1 44.9663 35.1595 34.1232
1 48.1868 33.432 31.468
1 49.7914 35.9752 31.4694
1 49.5759 37.8962 34.1205
1 48.0441 35.1439 34.072
1 33.7994 41.7502 31.2894
1 33.765 43.3829 33.9467
1 35.5584 39.0335 31.3322
1 36.9713 41.6191 31.4158
1 36.8288 43.3803 34.0166
1 35.3401 40.6928 34.0119
1 38.6254 38.9512 31.4082
1 40.0683 41.6814 31.4996
1 39.9992 43.3443 34.0208
1 38.408 40.6747 34.177
1 41.7395 38.7692 31.5713
1 43.2794 41.6974 31.3933
1 43.1929 43.4712 34.0561
1 41.5869 40.7368 33.9317
1 44.9727 38.8747 31.4877
1 46.495 41.6027 31.5518
1 46.4802 43.3787 34.1237
1 44.7693 40.6181 34.0945
1 48.1151 38.7842 31.4809
1 49.609 41.6841 31.5253
1 49.6439 43.4332 34.1419
1 47.9506 40.7112 34.1043
1 30.7485 47.3264 31.5671
1 30.825 48.9769 34.1104
1 32.1442 44.519 31.3728
1 33.7889 47.1784 31.5087
1 33.7951 48.9631 34.0603
1 32.1863 46.131 34.031
1 35.3204 44.4228 31.436
1 36.939 47.165 31.4363
1 36.8722 49.0736 33.9734
1 35.3103 46.1002 33.9544
1 38.5052 44.3921 31.4585
1 40.1991 47.1355 31.4009
1 40.0433 48.963 34.0546
1 38.4517 46.1667 34.0654
1 41.5536 44.4504 31.4553
1 43.2134 47.1661 31.4371
1 43.2361 48.9744 34.1281
1 41.5359 46.162 34.1508
1 44.7931 44.4007 31.5674
1 46.4333 47.1873 31.5673
1 46.4901 49.0284 34.1586
1 44.8064 46.202 34.0644
1 47.9774 44.4114 31.5787
1 49.6497 47.203 31.494
1 49.6528 48.8949 34.113
1 47.941 46.1438 34.1349
1 32.3924 49.9895 31.4913
1 35.3882 49.8666 31.4499
1 38.5384 49.8509 31.4257
1 41.6315 49.9202 31.5757
1 44.8645 49.9194 31.6149
1 47.9815 49.9428 31.6766
1 43.4276 32.2141 39.1432
1 43.5873 30.5922 36.4342
1 46.4029 32.4167 39.1731
1 46.6619 30.6075 36.5585
1 49.5592 32.4225 39.3239
1 37.0063 36.269 36.5744
1 36.8648 37.8708 39.2324
1 40.0229 36.0134 36.6801
1 40.0399 37.8905 39.2919
1 38.4326 35.2478 39.1925
1 41.7397 33.3633 36.6607
1 43.2083 36.087 36.6426
1 43.1879 37.773 39.2334
1 41.6284 35.0635 39.211
1 44.9023 33.2928 36.6225
1 46.3319 36.1033 36.6718
1 46.2766 37.9652 39.1027
1 44.7291 35.1224 39.2451
1 48.0798 33.3314 36.6577
1 49.5138 36.0885 36.6291
1 49.5592 37.8148 39.338
1 47.8888 35.1489 39.241
1 33.8019 41.4365 36.593
1 33.6806 43.3545 39.2342
1 35.468 38.8966 36.5853
1 36.8743 41.5242 36.697
1 36.7398 43.4039 39.3247
1 35.2665 40.5422 39.1934
1 38.5668 38.9243 36.7793
1 40.014 41.6425 36.7155
1 40.0122 43.4571 39.1956
1 38.3198 40.7486 39.2786
1 41.6441 38.7165 36.7501
1 43.1934 41.5246 36.53
1 43.1979 43.3497 39.3095
1 41.5996 40.6823 39.2402
1 44.7536 38.8095 36.5162
1 46.2959 41.5699 36.7248
1 46.3236 43.3841 39.2356
1 44.7002 40.6343 39.1713
1 47.8514 38.8652 36.6936
1 49.5285 41.5283 36.6983
1 49.5387 43.4004 39.2617
1 47.9821 40.6362 39.2515
1 30.6425 47.1412 36.5694
1 30.4943 48.8917 39.1622
1 32.2675 44.2783 36.5167
1 33.7484 47.0178 36.5996
1 33.6441 48.8767 39.2407
1 32.0476 46.0715 39.2805
1 35.2487 44.2566 36.637
1 36.7762 47.0703 36.6237
1 36.826 48.8449 39.2531
1 35.1239 46.1835 39.3405
1 38.4918 44.2922 36.6332
1 40.0586 47.0513 36.7043
1 39.9776 48.8363 39.2745
1 38.3306 46.1462 39.27
1 41.6538 44.3169 36.6582
1 43.2781 47.1548 36.708
1 43.1944 49.0213 39.3405
1 41.5798 46.1463 39.2684
1 44.7006 44.3668 36.6844
1 46.4042 47.0616 36.7685
1 46.4375 48.8714 39.25
1 44.6871 46.1327 39.2653
1 47.9537 44.3625 36.6716
1 49.6246 47.1281 36.6632
1 49.64 48.9902 39.2235
1 47.9903 46.1873 39.2803
1 32.0949 49.7905 36.708
1 35.2532 49.8546 36.5793
1 38.3217 49.8578 36.6427
1 41.6036 49.8943 36.7447
1 44.7697 49.878 36.782
1 48.0573 49.9645 36.7811
1 46.5651 30.6643 41.7058
1 49.6491 30.7335 41.8315
1 36.7826 35.9829 41.7715
1 39.9168 35.9042 41.7953
1 41.744 33.299 41.7416
1 43.0209 36.001 41.8582
1 44.8203 33.2632 41.8304
1 46.3376 36.0209 41.761
1 47.9728 33.464 41.7786
1 49.6112 35.9544 41.8643
1 33.7967 41.4855 41.857
1 35.3171 38.7259 41.7752
1 36.8226 41.4557 41.9422
1 38.3444 38.6973 41.8455
1 39.8852 41.4592 41.7786
1 41.5376 38.727 41.8767
1 43.104 41.4219 41.8157
1 44.7095 38.6791 41.8833
1 46.3199 41.5187 41.7539
1 47.937 38.6784 41.8051
1 49.5521 41.4952 41.8762
1 30.5415 47.1218 41.7838
1 32.118 44.2815 41.8699
1 33.5947 47.0149 41.9109
1 35.1591 44.2302 41.9184
1 36.813 46.9281 41.8757
1 38.3074 44.2328 41.8436
1 39.9615 46.9742 41.8881
1 41.558 44.2435 41.8784
1 43.3044 47.0628 41.8488
1 44.6623 44.1941 41.8716
1 46.3801 46.9526 41.8439
1 47.9038 44.2059 41.7667
1 49.5743 47.089 41.7903
1 32.0872 49.7724 41.7611
1 35.1844 49.7437 41.8027
1 38.4854 49.7074 41.9143
1 41.5495 49.7744 41.8711
1 44.8618 49.8158 41.8098
1 47.9522 49.7362 41.791
1 43.4864 32.5023 44.3785
1 46.5585 32.3317 44.3473
1 49.6495 32.292 44.4918
1 36.7358 37.727 44.407
1 39.8978 37.7821 44.4443
1 38.4864 34.9709 44.3808
1 43.0568 37.67 44.439
1 41.67 34.9265 44.4636
1 46.2812 37.8633 44.4088
1 44.796 35.1357 44.3554
1 49.4769 37.7154 44.5102
1 47.9412 35.1051 44.4426
1 33.6487 43.1859 44.5358
1 36.6941 43.3361 44.4631
1 35.2816 40.5563 44.3987
1 39.9154 43.3626 44.3855
1 38.4088 40.5205 44.3927
1 43.1006 43.2112 44.4029
1 41.5624 40.5488 44.3733
1 46.2936 43.3762 44.3148
1 44.6873 40.4587 44.4035
1 49.4639 43.4054 44.4592
1 47.9487 40.5058 44.3635
1 30.6153 48.8041 44.4989
1 33.5995 48.7656 44.4641
1 32.0314 46.0426 44.497
1 36.7724 48.8487 44.3992
1 35.1227 46.0083 44.4887
1 40.036 48.8272 44.4666
1 38.2532 46.0683 44.4169
1 43.18 48.8412 44.3821
1 41.621 46.1161 44.4441
1 46.3664 48.8853 44.4901
1 44.6634 46.105 44.4407
1 49.4951 48.8157 44.3983
1 47.9387 46.1596 44.3387
1 43.4469 32.3219 49.6385
1 46.6924 30.5127 46.9753
1 46.6726 32.1977 49.656
1 49.6808 30.6101 47.2156
1 49.8388 32.5163 49.7238
1 37.0179 35.9814 46.9367
1 36.7827 37.7593 49.4991
1 40.0907 35.9535 46.98
1 40.0212 37.7716 49.587
1 38.4741 35.124 49.4627
1 41.748 33.2573 47.0766
1 43.2695 35.9316 47.0152
1 43.2755 37.6786 49.5753
1 41.6927 35.0005 49.6047
1 44.9827 33.1394 47.0458
1 46.39 35.9001 47.0272
1 46.4059 37.8877 49.6318
1 44.8165 34.9867 49.619
1 48.1018 33.2729 47.0344
1 49.5786 36.0139 46.9665
1 49.5244 37.8765 49.6111
1 47.9834 35.1539 49.6174
1 33.7406 41.299 47.0461
1 33.4947 43.214 49.5835
1 35.3018 38.6281 47.0367
1 36.8314 41.382 46.9099
1 36.7253 43.2289 49.5234
1 35.1182 40.3866 49.6219
1 38.4709 38.7344 46.9771
1 40.03 41.3877 46.9065
1 40.058 43.2153 49.5786
1 38.3134 40.5142 49.6267
1 41.6006 38.7329 46.9821
1 43.1447 41.4586 46.9883
1 43.1734 43.3113 49.5709
1 41.6238 40.4584 49.5577
1 44.7969 38.6008 46.9691
1 46.272 41.6542 46.961
1 46.3792 43.5021 49.51
1 44.6798 40.6377 49.5206
1 47.7771 38.7726 46.9269
1 49.4085 41.5384 46.9053
1 49.4683 43.2944 49.5802
1 47.851 40.7055 49.5732
1 30.4463 46.9819 47.0543
1 30.401 48.8583 49.5477
1 32.1109 44.2433 46.9962
1 33.5594 47.0412 47.1227
1 33.5287 48.8206 49.6644
1 31.9267 46.0321 49.6249
1 35.1261 44.1378 47.0675
1 36.7558 46.8444 47.1001
1 36.7286 48.7908 49.5872
1 35.0902 46.0177 49.676
1 38.4024 44.1551 47.0288
1 40.0156 46.9612 46.9341
1 40.0661 48.8023 49.6288
1 38.3417 46.0154 49.642
1 41.5644 44.2909 47.0246
1 43.2021 47.008 47.0243
1 43.2272 48.8178 49.6047
1 41.5927 46.0202 49.6312
1 44.6919 44.3035 47.0001
1 46.3906 47.0876 47.0458
1 46.3938 48.8457 49.5791
1 44.7146 46.1331 49.6013
1 47.9686 44.4055 46.9018
1 49.499 47.0582 46.9657
1 49.6927 48.8872 49.5428
1 48.0092 46.0656 49.6643
1 32.0644 49.6739 47.0875
1 35.2677 49.742 47.0382
1 38.3718 49.7439 47.0326
1 41.7221 49.7359 46.985
1 44.7842 49.8374 47.0736
1 48.1072 49.8205 46.9828
1 43.4351 32.528 54.942
1 52.8873 30.8617 52.3292
1 46.5242 32.4382 54.7724
1 55.9751 30.8301 52.4211
1 49.7445 32.3664 54.9214
1 36.8783 36.1044 52.1027
1 36.9981 37.7552 54.7256
1 39.9858 36.036 52.1793
1 40.1085 37.7115 54.7465
1 38.4822 35.1083 54.6348
1 41.8231 33.3325 52.2754
1 43.3556 36.0283 52.1231
1 43.2818 38.025 54.8094
1 41.7255 35.184 54.7384
1 44.969 33.287 52.261
1 46.4299 36.0799 52.1627
1 46.4304 37.8626 54.8431
1 44.7494 35.1343 54.7919
1 48.1677 33.4414 52.2516
1 49.6735 36.0454 52.1845
1 49.6402 37.8374 54.7857
1 48.0409 35.1743 54.7944
1 33.7056 41.3943 52.2449
1 33.6413 43.2133 54.8242
1 35.2606 38.7051 52.1381
1 36.8564 41.4384 52.2929
1 36.7384 43.3232 54.8283
1 35.2536 40.5543 54.6849
1 38.4147 38.7208 52.1745
1 40.0279 41.4967 52.1472
1 40.0489 43.4164 54.7789
1 38.5135 40.5284 54.796
1 41.6174 38.6603 52.2182
1 43.1714 41.4831 52.1042
1 43.19 43.42 54.8469
1 41.6313 40.6959 54.7014
1 44.8496 38.8397 52.14
1 46.4249 41.5491 52.1419
1 46.3899 43.4776 54.7313
1 44.9242 40.8001 54.7921
1 47.98 38.7754 52.1291
1 49.6416 41.604 52.2332
1 49.7053 43.5152 54.8009
1 48.1483 40.6336 54.6859
1 30.4762 47.1353 52.1658
1 30.5499 48.8878 54.7683
1 32.1422 44.2823 52.2049
1 33.5498 47.0212 52.261
1 33.5333 48.7015 54.7447
1 32.0413 46.104 54.8778
1 35.1554 44.1356 52.181
1 36.7605 47.0348 52.2607
1 36.7827 48.7977 54.7976
1 35.1475 45.9976 54.8661
1 38.4065 44.2225 52.2288
1 39.942 46.9447 52.2438
1 39.9729 48.8367 54.7993
1 38.3156 46.124 54.8042
1 41.6906 44.1883 52.1048
1 43.0742 47.0484 52.2141
1 43.1741 48.8571 54.9527
1 41.6028 46.1382 54.6917
1 44.7434 44.3201 52.1376
1 46.3427 47.0587 52.1847
1 46.467 48.8248 54.7338
1 44.7938 46.1458 54.8367
1 47.9923 44.2977 52.2519
1 49.7556 47.133 52.1148
1 49.6749 48.9942 54.798
1 48.0558 46.088 54.8292
1 31.9978 49.7027 52.1628
1 35.1109 49.6896 52.1673
1 38.3277 49.7892 52.2193
1 41.5653 49.7 52.22
1 44.7205 49.7458 52.2837
1 47.9612 49.7468 52.2233
1 43.4586 32.3681 60.0977
1 46.4428 30.7419 57.3669
1 46.5777 32.3435 59.9843
1 49.5872 30.7391 57.8599
1 49.7106 32.7233 60.0764
1 36.9251 36.04 57.385
1 36.8545 37.866 59.9768
1 40.0635 35.9577 57.2875
1 40.0053 37.8703 59.8907
1 38.5011 35.1808 59.9842
1 41.8208 33.3681 57.4716
1 43.2019 36.121 57.3478
1 43.2506 37.8582 59.8898
1 41.6982 35.1017 59.938
1 44.8386 33.4097 57.4953
1 46.3483 36.1215 57.4488
1 46.3305 37.9716 60.0039
1 44.9232 35.1326 59.9741
1 48.1295 33.352 57.3638
1 49.6849 36.1565 57.4061
1 49.6575 38.0501 59.9189
1 48.0146 35.2137 59.9563
1 33.7125 41.466 57.4184
1 33.6609 43.4082 60.0674
1 35.5127 38.8455 57.2832
1 36.9109 41.5277 57.3909
1 36.7459 43.5117 60.0459
1 35.3228 40.6656 60.0239
1 38.5298 38.7757 57.3153
1 40.0789 41.5479 57.3297
1 40.0334 43.4084 59.9864
1 38.4736 40.6161 59.9624
1 41.6134 38.8366 57.3098
1 43.2033 41.5722 57.3249
1 43.1904 43.3615 60.0224
1 41.6137 40.6577 59.892
1 44.8886 38.9048 57.4176
1 46.4074 41.5363 57.3565
1 46.4706 43.4285 59.9275
1 44.7898 40.7418 60.0417
1 47.9599 38.8125 57.328
1 49.7426 41.6342 57.3502
1 49.6966 43.4527 59.9585
1 48.0021 40.7135 59.9164
1 30.4304 47.104 57.3677
1 30.5615 49.0878 59.918
1 32.0452 44.2994 57.5605
1 33.5482 47.0369 57.3735
1 33.5877 48.978 60.0192
1 32.0379 46.1835 60.0684
1 35.176 44.3205 57.4583
1 36.7288 47.0284 57.4155
1 36.7739 49.0231 60.0555
1 35.1383 46.2963 59.9379
1 38.3561 44.3288 57.3953
1 40.0106 47.0037 57.4312
1 39.9554 48.9918 60.0125
1 38.375 46.1274 60.002
1 41.6347 44.3483 57.3489
1 43.2798 47.091 57.4313
1 43.2779 48.9586 60.0363
1 41.6555 46.1791 59.9283
1 44.8446 44.277 57.365
1 46.478 47.072 57.3668
1 46.5194 48.8657 60.0599
1 44.868 46.1602 59.9865
1 48.0003 44.2885 57.2569
1 49.7182 47.2017 57.3351
1 49.6386 48.9178 59.9654
1 48.1071 46.1798 59.9648
1 32.1356 49.8053 57.4341
1 35.1586 49.7673 57.3794
1 38.449 49.7346 57.3425
1 41.5561 49.7139 57.4695
1 44.8348 49.8073 57.3772
1 48.0337 49.9274 57.3915
1 43.4722 32.5236 65.1559
1 46.6565 30.7858 62.6281
1 46.5581 32.6185 65.143
1 49.8062 30.8019 62.4252
1 49.6467 32.5211 65.1112
1 36.9044 36.2102 62.5061
1 36.9245 37.9773 65.1616
1 40.1069 36.1702 62.4925
1 40.1146 37.9492 65.0999
1 38.5593 35.311 65.1627
1 41.9678 33.5814 62.5726
1 43.4163 36.1788 62.454
1 43.3156 38.0178 65.2202
1 41.7782 35.2786 65.1214
1 45.0546 33.4706 62.4192
1 46.4784 36.1648 62.5314
1 46.4018 38.0186 65.0531
1 44.9497 35.3275 65.1073
1 48.1668 33.5289 62.5561
1 49.6842 36.3718 62.637
1 49.7702 38.0604 65.1236
1 48.1753 35.3269 65.2403
1 33.7413 41.6904 62.6558
1 33.6734 43.504 65.2191
1 35.3773 38.968 62.6573
1 36.8601 41.6405 62.6617
1 36.8894 43.494 65.3237
1 35.3679 40.7299 65.263
1 38.4793 38.814 62.5229
1 40.1719 41.5876 62.4401
1 40.0874 43.4988 65.104
1 38.5081 40.7321 65.1179
1 41.6895 38.7705 62.5498
1 43.3712 41.6251 62.5895
1 43.3113 43.5135 65.1217
1 41.6117 40.6995 65.1206
1 44.7381 38.93 62.5671
1 46.5647 41.72 62.5147
1 46.5628 43.4929 65.1584
1 44.8897 40.8121 65.1116
1 48.0542 38.8717 62.4919
1 49.7312 41.7421 62.6437
1 49.6883 43.5697 65.2826
1 48.0482 40.8385 65.0706
1 30.4846 47.3296 62.5496
1 30.5788 49.1234 65.1354
1 32.1555 44.4423 62.5985
1 33.6889 47.1567 62.5983
1 33.5349 49.0707 65.1742
1 31.9867 46.3104 65.0729
1 35.3053 44.4379 62.6152
1 36.8985 47.1351 62.5628
1 36.823 49.1349 65.1515
1 35.2397 46.3332 65.1087
1 38.4297 44.3869 62.5597
1 40.0572 47.0828 62.4757
1 40.0734 49.01 65.1314
1 38.4059 46.2607 65.1508
1 41.793 44.3493 62.5765
1 43.2534 47.0311 62.5868
1 43.2796 48.889 65.0815
1 41.6076 46.2224 65.1963
1 44.9388 44.2943 62.5326
1 46.4559 47.0569 62.5825
1 46.5259 49.009 65.1146
1 44.945 46.17 65.1473
1 48.146 44.4143 62.643
1 49.5734 47.1545 62.5476
1 49.7672 49.0406 65.2205
1 48.1717 46.2372 65.115
1 32.0812 50.0093 62.4942
1 35.2079 49.9274 62.6437
1 38.5244 50.0673 62.5459
1 41.6447 49.9364 62.5583
1 44.8706 49.8443 62.5583
1 48.1459 49.8765 62.5835
1 43.465 32.4992 70.3147
1 46.6483 30.831 67.799
1 46.6612 32.6739 70.3536
1 49.6753 30.9699 68.0249
1 49.8638 32.7235 70.3313
1 37.1327 36.2267 67.8325
1 37.1557 38.0681 70.4285
1 40.1909 36.2398 67.7766
1 40.2847 38.1856 70.4341
1 38.8492 35.4258 70.4425
1 41.8832 33.5691 67.6667
1 43.3395 36.243 67.7295
1 43.4242 38.0819 70.3348
1 41.8686 35.3566 70.3416
1 45.081 33.5131 67.7421
1 46.4035 36.229 67.7435
1 46.5537 38.1403 70.2821
1 44.971 35.4164 70.2984
1 48.135 33.6069 67.7244
1 49.7299 36.2991 67.7675
1 49.7738 38.1619 70.3195
1 48.2181 35.4112 70.3948
1 33.8982 41.7558 67.8295
1 33.8324 43.6062 70.3681
1 35.5534 38.9575 67.9028
1 36.9182 41.6747 67.8435
1 37.0587 43.6753 70.3926
1 35.3917 40.782 70.4168
1 38.6091 38.9621 67.6956
1 40.1505 41.7421 67.7163
1 40.1988 43.6271 70.2847
1 38.5386 40.8369 70.3795
1 41.7146 38.9612 67.8449
1 43.2605 41.7202 67.8382
1 43.3595 43.7043 70.4223
1 41.7311 40.9901 70.4741
1 44.9407 39.0263 67.7
1 46.4379 41.786 67.7876
1 46.5067 43.576 70.2965
1 44.9078 40.8885 70.3069
1 47.9911 39.0575 67.6617
1 49.6542 41.7304 67.7766
1 49.6687 43.6339 70.42
1 48.1335 40.8155 70.332
1 30.5442 47.212 67.7435
1 30.6193 49.0534 70.5811
1 32.2556 44.5714 67.9039
1 33.6455 47.249 67.8154
1 33.789 49.1111 70.3953
1 32.3547 46.3229 70.4235
1 35.3463 44.5495 67.8386
1 36.9417 47.3315 67.7599
1 36.9894 49.1208 70.4037
1 35.4296 46.3914 70.5069
1 38.5282 44.5212 67.7819
1 40.0967 47.2929 67.7486
1 40.1731 49.1248 70.4281
1 38.6208 46.3394 70.5053
1 41.7464 44.5367 67.7317
1 43.4038 47.1485 67.7093
1 43.4271 49.1115 70.2147
1 41.8002 46.3594 70.3083
1 44.8878 44.3233 67.8074
1 46.592 47.2153 67.7286
1 46.6087 49.1442 70.2885
1 44.9016 46.3947 70.3355
1 48.0929 44.4639 67.7756
1 49.8025 47.279 67.8056
1 49.8115 49.0963 70.4165
1 48.0821 46.2414 70.2939
1 32.0936 49.8984 67.8033
1 35.2479 50.0266 67.7365
1 38.5255 50.0906 67.6941
1 41.6969 49.9729 67.7622
1 44.9906 49.9421 67.6828
1 48.2944 49.9888 67.7821
1 43.5271 32.6512 75.3994
1 46.8494 30.9073 72.9069
1 46.6639 32.6076 75.4118
1 49.8808 30.857 72.7509
1 49.8088 32.4543 75.5022
1 37.0714 36.2933 72.9068
1 37.1037 38.0492 75.5184
1 40.2804 36.2724 72.9995
1 40.2036 38.0893 75.507
1 38.7017 35.297 75.4736
1 41.9714 33.6674 72.8865
1 43.3688 36.3012 72.9551
1 43.2405 38.0456 75.6067
1 41.8819 35.3155 75.5568
1 45.0848 33.5559 72.8641
1 46.5678 36.1779 72.8324
1 46.5356 38.0052 75.4977
1 45.0444 35.3629 75.4663
1 48.2648 33.5437 72.9325
1 49.9013 36.1673 72.8532
1 49.7956 38.0554 75.4079
1 48.2634 35.2423 75.4305
1 33.8537 41.8272 72.978
1 33.894 43.682 75.5621
1 35.6593 39.1485 72.9881
1 37.0989 41.7393 72.9186
1 36.9598 43.5819 75.5512
1 35.4171 40.8933 75.4763
1 38.6936 39.0803 72.9438
1 40.1932 41.8761 72.9489
1 40.1067 43.6755 75.5739
1 38.5035 40.8272 75.5777
1 41.8583 38.967 73.016
1 43.4143 41.8421 72.9681
1 43.3408 43.6746 75.5709
1 41.7239 40.8737 75.5111
1 45.0173 39.0751 72.881
1 46.5303 41.7573 73.0135
1 46.4271 43.62 75.6581
1 44.8947 40.7359 75.5628
1 48.204 38.9169 72.9015
1 49.7189 41.7742 73.0564
1 49.6896 43.6355 75.5495
1 48.1278 40.8547 75.611
1 30.5876 47.1789 73.0367
1 30.6159 49.1506 75.5049
1 32.2533 44.6021 73.0966
1 33.7202 47.3575 73.1472
1 33.6521 49.0511 75.7516
1 32.0981 46.3192 75.6061
1 35.3047 44.6122 73.0304
1 36.9916 47.3815 72.9939
1 36.8414 49.1657 75.5687
1 35.4426 46.446 75.6236
1 38.6603 44.5478 72.9508
1 40.1889 47.2954 73.0332
1 40.028 49.1851 75.5296
1 38.5717 46.3168 75.5485
1 41.7339 44.5635 72.9346
1 43.2825 47.3323 72.9081
1 43.2145 49.0974 75.5747
1 41.5929 46.3747 75.5458
1 44.9047 44.5314 73.0678
1 46.4734 47.238 72.9566
1 46.3958 49.0916 75.6462
1 44.8621 46.3814 75.7292
1 48.097 44.5377 72.9314
1 49.6728 47.2189 72.8587
1 49.6981 48.9903 75.4603
1 47.997 46.3652 75.5123
1 32.2349 49.9696 73.1113
1 35.3255 50.0157 72.9592
1 38.5206 50.048 72.9604
1 41.679 50.1611 72.9684
1 44.875 50.0029 72.8754
1 48.1333 50.0381 72.9378
1 43.5254 32.7296 80.7381
1 47.0519 30.8367 77.8629
1 46.701 32.477 80.5512
1 50.0711 30.9097 78.3302
1 49.7905 32.7389 80.7642
1 37.1177 36.2917 78.0501
1 36.9546 38.2117 80.7573
1 40.2824 36.3577 78.0548
1 40.1768 38.2429 80.7135
1 38.6391 35.6817 80.7568
1 41.9293 33.5069 78.121
1 43.4406 36.2541 78.1045
1 43.3008 38.0731 80.7057
1 41.7975 35.4664 80.7497
1 45.1055 33.3756 77.9345
1 46.6787 36.2645 78.1128
1 46.5144 38.1216 80.7025
1 45.0507 35.338 80.6373
1 48.2893 33.5509 78.0721
1 49.7833 36.439 78.1679
1 49.6469 38.1016 80.7452
1 48.1623 35.35 80.7094
1 33.8788 41.8973 78.2351
1 33.7684 43.7276 80.7283
1 35.4015 39.0716 78.1776
1 37.0161 41.7392 78.1611