5538
Atoms. Timestep: 20000
1 43.527 30.9629 0.0840195
1 46.6827 30.9739 5.34399
1 46.6121 30.8852 0.0268098
1 49.7712 30.875 5.45845
1 49.9205 30.997 0.0784112
1 38.7309 37.0857 2.84804
1 38.6345 38.8368 0.213098
1 40.2525 34.4551 2.62605
1 40.2456 36.2074 0.0628363
1 38.8897 33.2426 0.109555
1 40.4586 30.7523 -0.106356
1 43.465 34.3482 2.76019
1 43.47 36.2379 0.137565
1 41.9469 33.55 0.0262414
1 45.0445 31.6585 2.73808
1 46.5283 34.3335 2.79067
1 46.6985 36.263 0.063297
1 45.0925 33.6626 0.143054
1 48.2533 31.6766 2.68824
1 49.7541 34.3969 2.72587
1 49.7433 36.2882 0.118502
1 48.1802 33.5113 0.12506
1 35.4003 42.5304 2.76383
1 35.5033 44.3606 0.184361
1 37.0199 39.7252 2.77512
1 38.4854 42.6715 2.86773
1 38.5792 44.4615 0.230938
1 37.138 41.5602 0.293982
1 40.2163 39.8033 2.71407
1 41.8245 42.6047 2.75608
1 41.7588 44.4617 0.189304
1 40.208 41.6964 0.125415
1 41.7925 37.149 2.74387
1 43.2938 39.9081 2.68823
1 43.4201 41.7932 0.161795
1 41.8439 38.9661 -0.0456065
1 44.9596 37.1049 2.75625
1 46.5265 39.8879 2.67465
1 46.6043 41.6518 0.178499
1 45.0251 38.986 0.128839
1 48.2302 37.0332 2.80881
1 49.7888 39.8576 2.77156
1 49.7514 41.8156 0.122983
1 48.29 38.9765 0.0148345
1 32.3736 48.04 2.71933
1 32.3083 49.9633 0.186205
1 33.7561 45.3696 2.85474
1 35.3649 48.0975 2.73849
1 35.3268 49.9267 0.149584
1 33.9125 47.1635 0.08159
1 36.9249 45.4461 2.79787
1 38.6171 48.1201 2.77506
1 38.5866 49.9583 0.120554
1 37.07 47.2344 0.188904
1 40.1724 45.3954 2.91365
1 41.756 48.1572 2.74723
1 41.8066 49.9854 0.170561
1 40.2435 47.2344 0.189307
1 43.2913 45.4006 2.81581
1 44.9316 48.1305 2.8371
1 44.9854 50.056 0.194038
1 43.4442 47.2425 0.142432
1 44.8408 42.5034 2.77525
1 46.4479 45.3429 2.71225
1 46.6778 47.2193 0.252047
1 45.0143 44.3538 0.155594
1 48.0228 42.7011 2.78524
1 49.6867 45.4379 2.75719
1 49.8163 47.2641 0.193853
1 48.1656 44.4977 0.0859193
1 33.6406 50.8459 2.68274
1 36.9616 50.8474 2.71504
1 40.1021 50.8769 2.77191
1 43.3617 50.8986 2.92761
1 46.5362 50.8579 2.84203
1 48.1063 48.0414 2.79246
1 43.5708 32.4961 8.06657
1 48.0202 30.0286 7.94672
1 46.6381 32.6995 7.8992
1 51.244 29.9973 7.96568
1 49.8517 32.6998 8.03447
1 37.1213 36.2641 5.44028
1 37.1074 38.1378 8.05626
1 40.1954 36.2959 5.31816
1 40.2379 38.069 8.12126
1 38.5447 35.3608 7.91712
1 41.8051 31.7766 2.47897
1 43.2972 36.1974 5.39096
1 43.365 38.0147 8.00117
1 41.8283 35.2908 8.06516
1 44.8951 33.4926 5.46893
1 46.5835 36.1556 5.35154
1 46.526 38.0082 7.94508
1 45.0259 35.2623 7.9969
1 48.2403 33.5148 5.31688
1 49.8249 36.277 5.38241
1 49.7695 38.0883 8.0744
1 48.1754 35.3707 7.94676
1 33.8453 41.6603 5.60104
1 33.771 43.508 8.05755
1 35.536 38.9456 5.48146
1 37.0134 41.5471 5.43916
1 36.9582 43.4975 8.06419
1 35.5277 40.7397 8.06302
1 38.6516 38.9955 5.49877
1 40.2308 41.7017 5.42687
1 40.1753 43.4213 8.08943
1 38.6234 40.81 8.04232
1 41.7728 39.0138 5.39902
1 43.3398 41.6345 5.45364
1 43.3299 43.5371 8.01568
1 41.7769 40.7379 8.03613
1 45.0644 38.914 5.30931
1 46.5679 41.6356 5.35629
1 46.6334 43.4126 8.00066
1 44.9085 40.7135 8.06407
1 48.1064 39.0198 5.40422
1 49.682 41.6982 5.299
1 49.8087 43.5057 7.90128
1 48.1318 40.8276 8.00175
1 30.9047 47.2323 5.44603
1 30.6864 48.9898 8.1148
1 32.2915 44.545 5.51382
1 33.897 47.1277 5.49112
1 33.8264 48.9772 7.89419
1 32.152 46.2911 8.13776
1 35.3717 44.4086 5.42236
1 36.9721 47.225 5.33661
1 36.9625 49.0385 7.97145
1 35.2993 46.1955 8.05088
1 38.4853 44.4478 5.44949
1 40.1679 47.2726 5.31446
1 40.0534 49.1234 7.98951
1 38.4745 46.3207 7.86165
1 41.7104 44.4318 5.45345
1 43.3045 47.2874 5.43007
1 43.2926 49.0862 8.07869
1 41.6079 46.2391 7.93135
1 44.9123 44.3616 5.34483
1 46.4889 47.1719 5.47512
1 46.462 49.1151 7.97433
1 44.821 46.2835 7.89333
1 48.128 44.5049 5.42055
1 49.654 47.2009 5.44809
1 49.6253 49.0371 8.03233
1 48.0696 46.2517 8.03669
1 32.2484 49.9859 5.38496
1 35.2496 49.987 5.27415
1 38.5711 49.9488 5.38575
1 41.7204 49.9928 5.49578
1 44.9474 49.9991 5.49377
1 48.2286 49.9795 5.41077
1 43.3312 32.5568 13.1698
1 46.5279 30.8827 10.4316
1 46.613 32.4933 13.2522
1 49.6466 30.9427 10.5074
1 49.7264 32.6204 13.26
1 37.1725 36.1802 10.6379
1 37.0895 38.0387 13.3044
1 40.2165 36.237 10.6701
1 40.1933 38.0408 13.2675
1 38.6703 35.3147 13.2952
1 41.9177 33.5322 10.7179
1 43.4382 36.2228 10.5988
1 43.3989 37.9898 13.3079
1 41.7965 35.2491 13.2493
1 44.9889 33.4105 10.6895
1 46.584 36.1993 10.6715
1 46.5558 37.9547 13.2849
1 44.8896 35.1503 13.28
1 48.0207 33.5148 10.5578
1 49.7481 36.2104 10.7183
1 49.7576 38.0391 13.2462
1 47.9954 35.3741 13.3286
1 33.9928 41.758 10.7055
1 33.6156 43.4832 13.3248
1 35.5308 38.9129 10.675
1 37.037 41.7137 10.7023
1 36.9043 43.3996 13.3958
1 35.4779 40.6899 13.2601
1 38.6263 38.8381 10.6263
1 40.2185 41.5786 10.7569
1 40.1293 43.4625 13.2915
1 38.5463 40.7758 13.2587
1 41.8319 38.9032 10.6593
1 43.3179 41.665 10.639
1 43.2653 43.5273 13.2121
1 41.769 40.7149 13.2657
1 44.9985 38.886 10.5956
1 46.538 41.5593 10.6491
1 46.4896 43.4675 13.2173
1 44.8865 40.7517 13.2707
1 48.1462 38.9894 10.6236
1 49.7305 41.6379 10.5862
1 49.6483 43.4845 13.1092
1 48.121 40.6958 13.2488
1 30.7288 47.2614 10.6866
1 30.6546 49.0548 13.3713
1 32.3147 44.4998 10.566
1 33.8422 47.1673 10.6862
1 33.7429 49.0187 13.2789
1 32.1107 46.2434 13.2946
1 35.3752 44.2936 10.6996
1 36.9794 47.1713 10.558
1 36.9278 48.9802 13.2433
1 35.2483 46.2861 13.3321
1 38.6155 44.3616 10.7153
1 40.1284 47.1919 10.5218
1 40.1048 49.0071 13.2815
1 38.4622 46.1389 13.2899
1 41.7851 44.4019 10.6396
1 43.2702 47.0597 10.6846
1 43.2481 48.9623 13.1794
1 41.4937 46.2304 13.2341
1 44.9664 44.3876 10.6426
1 46.4221 47.1272 10.5509
1 46.3809 49.0578 13.2417
1 44.8795 46.3277 13.2755
1 48.095 44.3762 10.5874
1 49.6014 47.1533 10.5786
1 49.6398 48.9466 13.2657
1 47.9707 46.2783 13.2503
1 32.3504 49.8815 10.5776
1 35.4228 49.8831 10.6802
1 38.5176 49.8562 10.5532
1 41.655 49.8528 10.703
1 44.8613 49.9498 10.7075
1 48.084 49.8872 10.7071
1 43.3847 32.4596 18.3326
1 43.5072 30.7715 15.6493
1 46.6273 32.5485 18.5485
1 46.4299 30.714 15.9721
1 49.8613 32.5076 18.3606
1 37.0193 36.3036 15.9241
1 37.0761 38.1947 18.4595
1 40.135 36.2523 15.7878
1 40.2665 37.9776 18.4698
1 38.5926 35.4969 18.4623
1 41.8648 33.4412 15.7314
1 43.2771 36.1886 15.7594
1 43.357 37.8546 18.4165
1 41.7477 35.1593 18.3396
1 44.9556 33.4494 15.7635
1 46.4833 36.0589 15.9
1 46.5154 37.9159 18.4046
1 45.0084 35.1107 18.4176
1 48.1814 33.4533 15.7641
1 49.725 36.2011 15.866
1 49.761 37.9351 18.4997
1 48.2979 35.164 18.4986
1 33.695 41.7032 15.9131
1 33.7373 43.5057 18.6146
1 35.3958 38.937 15.8181
1 36.9218 41.6183 16.0269
1 36.8105 43.4775 18.4962
1 35.4335 40.8072 18.511
1 38.6374 38.9311 15.9311
1 40.0975 41.6933 15.8997
1 40.0306 43.5191 18.5932
1 38.6443 40.7107 18.6185
1 41.7245 38.9755 15.9575
1 43.3509 41.6256 15.8846
1 43.2601 43.453 18.4852
1 41.8016 40.7409 18.545
1 44.9476 38.8293 15.9102
1 46.5819 41.6547 15.8903
1 46.4771 43.4139 18.4305
1 44.9107 40.6138 18.4982
1 48.2388 38.9572 15.8567
1 49.6367 41.7559 15.759
1 49.6588 43.5672 18.4546
1 48.0856 40.7572 18.4556
1 30.6613 47.2456 15.8634
1 30.7468 48.9572 18.5827
1 32.0775 44.3497 15.9571
1 33.7114 47.1231 15.8927
1 33.8804 49.0168 18.4952
1 32.1185 46.3294 18.4268
1 35.2929 44.3732 15.959
1 36.87 47.1268 15.9445
1 36.9576 49.0956 18.5416
1 35.2508 46.2645 18.5313
1 38.5213 44.4226 15.9493
1 40.1645 47.0864 15.8307
1 40.0566 49.0702 18.4204
1 38.3902 46.2644 18.5241
1 41.6895 44.3327 15.8981
1 43.2979 47.1136 15.8565
1 43.2695 48.9437 18.4325
1 41.6693 46.1987 18.3997
1 44.9126 44.4333 15.8124
1 46.4666 47.1324 15.8778
1 46.4616 48.9699 18.3329
1 44.8447 46.1897 18.4397
1 48.1093 44.4674 15.8536
1 49.6231 47.1327 15.8182
1 49.7069 48.9993 18.4319
1 47.9416 46.2268 18.4487
1 32.2181 49.9125 15.9509
1 35.344 49.9 15.8263
1 38.5413 49.8542 15.7883
1 41.7311 49.9545 15.775
1 44.8774 49.9361 15.8987
1 48.064 49.9156 15.8944
1 43.4083 32.4041 23.6442
1 46.863 30.9206 21.1189
1 46.6771 32.3855 23.7217
1 49.8446 31.0086 21.0065
1 49.7848 32.6274 23.6633
1 37.2023 36.2368 21.0818
1 37.1525 37.9706 23.7514
1 40.2455 36.0749 20.9853
1 40.1746 37.9254 23.6477
1 38.6955 35.3015 23.5386
1 41.9077 33.4392 20.9065
1 43.382 36.1246 21.0123
1 43.3377 37.8886 23.6726
1 41.7247 35.1814 23.649
1 44.9645 33.3363 21.0571
1 46.5736 36.1269 21.0973
1 46.5127 37.8797 23.7094
1 44.9081 35.0807 23.5468
1 48.2954 33.4926 21.0129
1 49.8497 36.1329 21.0626
1 49.7341 38.0074 23.8004
1 48.1875 35.229 23.7102
1 33.7533 41.7436 21.1329
1 33.8946 43.5093 23.7314
1 35.63 38.9258 21.2223
1 37.071 41.7004 21.0611
1 36.9634 43.5965 23.6941
1 35.4158 40.8062 23.6438
1 38.7331 38.8982 21.0779
1 40.2126 41.6415 21.0921
1 40.1069 43.431 23.7336
1 38.4858 40.7353 23.7115
1 41.7783 38.8522 21.0542
1 43.46 41.6602 21.0803
1 43.2332 43.4 23.6071
1 41.6752 40.6474 23.6801
1 44.9957 38.8567 21.0225
1 46.5395 41.6017 21.0357
1 46.4284 43.4172 23.6798
1 44.8112 40.6081 23.6747
1 48.1954 38.8664 21.0089
1 49.8002 41.6379 20.9464
1 49.6847 43.5025 23.604
1 48.0849 40.7341 23.6146
1 30.576 47.1354 21.1043
1 30.5689 49.1094 23.7348
1 32.2241 44.4818 21.1267
1 33.6973 47.1593 21.1643
1 33.6565 49.0167 23.7484
1 32.1398 46.2974 23.7543
1 35.2858 44.4393 21.0864
1 36.8973 47.2667 21.0722
1 36.8457 49.0507 23.6994
1 35.2537 46.2877 23.7664
1 38.4091 44.4893 21.1884
1 40.1578 47.2143 21.0844
1 39.9892 48.9777 23.7447
1 38.53 46.2466 23.7462
1 41.6753 44.4306 21.0499
1 43.2658 47.1607 21.0318
1 43.153 48.9974 23.6384
1 41.6635 46.1374 23.6887
1 44.7975 44.3596 21.0606
1 46.3909 47.0948 21.0419
1 46.3021 48.9382 23.7041
1 44.7607 46.1651 23.7112
1 48.0299 44.3902 20.9872
1 49.568 47.1531 21.0496
1 49.5801 48.9941 23.6173
1 48.012 46.2203 23.7235
1 32.1226 49.8955 21.0685
1 35.2568 49.9081 21.1725
1 38.4753 50.0293 21.1025
1 41.7037 49.9797 20.9929
1 44.858 49.9101 21.0553
1 48.0237 49.7966 20.9804
1 43.5559 30.6171 26.3126
1 46.5892 30.6155 26.1691
1 37.0889 36.1745 26.287
1 40.1826 36.1203 26.3097
1 41.9863 33.3387 26.2101
1 43.3466 36.0618 26.2838
1 45.0545 33.397 26.2321
1 46.3821 36.0879 26.2361
1 48.0734 33.3955 26.2614
1 49.7158 36.0554 26.3401
1 33.9215 41.7601 26.1894
1 35.6127 39.0681 26.3282
1 36.9904 41.8022 26.2739
1 38.5669 38.8788 26.3249
1 40.1489 41.6943 26.2089
1 41.7887 38.822 26.2899
1 43.3573 41.6108 26.2001
1 44.8467 38.7545 26.2022
1 46.4744 41.4486 26.2335
1 48.097 38.8124 26.3954
1 49.7032 41.4952 26.322
1 30.7131 47.2956 26.2671
1 32.3184 44.5127 26.2859
1 33.7545 47.1315 26.2848
1 35.377 44.4882 26.2795
1 36.8707 47.1955 26.253
1 38.5296 44.4288 26.2897
1 40.2276 47.1438 26.4059
1 41.8073 44.383 26.2964
1 43.347 47.1655 26.311
1 44.9818 44.3075 26.3234
1 46.4143 47.244 26.3489
1 48.0151 44.339 26.2379
1 49.5728 47.0783 26.2148
1 32.152 49.9907 26.3517
1 35.3346 49.8913 26.3405
1 38.4994 49.9137 26.3007
1 41.6747 49.8713 26.3724
1 44.8111 49.9723 26.265
1 47.9834 49.8713 26.2431
1 43.5074 32.4376 28.8454
1 46.6068 32.2276 28.8779
1 49.652 32.4775 28.8911
1 37.104 37.9298 28.8946
1 40.2254 37.9009 28.9033
1 38.6104 35.1886 28.8048
1 43.3509 37.9762 28.8785
1 41.8356 35.199 28.8619
1 46.5034 37.8202 28.9731
1 44.9355 35.0726 28.8986
1 49.6012 37.9131 28.9555
1 48.0098 35.1487 28.9224
1 33.7507 43.4636 28.8243
1 36.9179 43.4681 28.8528
1 35.3825 40.6998 28.8781
1 40.0918 43.5501 28.8893
1 38.5015 40.6796 28.8405
1 43.3431 43.366 28.8927
1 41.7466 40.6606 28.8473
1 46.4759 43.4581 28.883
1 44.9759 40.6283 28.8522
1 49.6405 43.485 28.8729
1 48.0294 40.6839 28.895
1 30.5615 48.9928 28.8591
1 33.6504 48.9424 28.8135
1 32.0975 46.287 28.8379
1 36.8897 49.0106 28.8508
1 35.2842 46.3325 28.8077
1 40.0694 48.8469 28.9172
1 38.4171 46.1958 29.053
1 43.3122 48.8978 28.9056
1 41.7468 46.1815 28.9714
1 46.4765 48.9801 28.9527
1 44.95 46.1107 28.9866
1 49.6433 48.9241 28.8457
1 47.998 46.2633 28.8468
1 43.5595 32.3345 34.0857
1 46.6906 30.6347 31.7818
1 46.6511 32.4769 34.2294
1 49.8486 30.7365 31.4155
1 49.7675 32.4424 34.0725
1 37.1285 36.1997 31.4058
1 36.9485 37.8786 34.0252
1 40.2418 36.0033 31.437
1 39.9855 37.9143 34.1397
1 38.6801 35.2261 34.0087
1 41.9145 33.3646 31.3939
1 43.5157 36.0756 31.4805
1 43.2297 37.8764 34.0946
1 41.807 35.0626 34.0647
1 44.9776 33.2828 31.4039
1 46.5662 36.065 31.5016
1 46.5235 37.8728 34.1093
1 44.9937 35.0773 34.0146
1 48.0921 33.3717 31.542
1 49.7685 36.1745 31.4971
1 49.71 37.9902 34.1108
1 48.1841 35.1357 34.1306
1 33.9439 41.5723 31.5393
1 33.7855 43.4258 34.0373
1 35.57 38.9103 31.4877
1 36.9857 41.492 31.5614
1 36.8926 43.4742 34.0401
1 35.449 40.6695 34.0061
1 38.6184 38.7604 31.4813
1 40.1029 41.5086 31.5089
1 39.9966 43.3762 34.1057
1 38.4878 40.5953 34.1229
1 41.7406 38.7921 31.4975
1 43.2959 41.4437 31.4741
1 43.3176 43.2878 34.098
1 41.6651 40.6246 34.0431
1 45.02 38.8172 31.4841
1 46.4535 41.5258 31.499
1 46.4445 43.2667 34.031
1 44.8991 40.6011 34.045
1 48.1073 38.8215 31.5404
1 49.6168 41.6378 31.4244
1 49.6573 43.3839 34.1597
1 48.1022 40.6015 34.0969
1 30.6831 47.2065 31.4484
1 30.7238 49.0469 34.0288
1 32.3026 44.3862 31.4501
1 33.7637 47.1233 31.4473
1 33.7293 49.0753 34.0821
1 32.205 46.3474 33.9783
1 35.3305 44.3365 31.4019
1 36.7927 47.1491 31.4798
1 36.8137 49.0173 33.9985
1 35.3031 46.2597 34.0198
1 38.4142 44.2809 31.591
1 40.1303 47.2708 31.4937
1 39.9607 49.0093 34.1263
1 38.4123 46.2587 34.0887
1 41.7163 44.1932 31.4429
1 43.4123 47.0405 31.4774
1 43.107 48.875 34.1283
1 41.5395 46.0971 33.9943
1 44.9261 44.2676 31.5025
1 46.4761 47.1554 31.5454
1 46.3761 49.0001 34.1898
1 44.8291 46.165 34.138
1 48.1224 44.4851 31.4787
1 49.625 47.0845 31.4237
1 49.6516 48.846 34.027
1 47.9899 46.0985 34
1 32.1136 49.8546 31.4612
1 35.2887 49.9057 31.4004
1 38.4833 49.8543 31.4114
1 41.6205 49.9162 31.5417
1 44.7646 49.8573 31.5899
1 48.0602 49.8905 31.602
1 43.3566 32.2941 39.2111
1 43.3224 30.5183 36.5699
1 46.541 32.2439 39.3003
1 46.4189 30.5609 36.6413
1 49.6123 32.3086 39.2504
1 37.1735 36.1065 36.597
1 36.891 37.8355 39.2312
1 40.2535 36.0412 36.6277
1 40.1281 37.8496 39.2874
1 38.4794 35.2142 39.2431
1 41.7617 33.1786 36.6716
1 43.3084 35.8641 36.6012
1 43.348 37.833 39.1949
1 41.6481 35.0512 39.2174
1 44.9441 33.2056 36.6956
1 46.4537 35.9981 36.7539
1 46.5048 37.7996 39.3648
1 44.8751 35.0287 39.2956
1 48.0641 33.2903 36.7298
1 49.6978 35.9056 36.6863
1 49.6572 37.8373 39.3204
1 48.0907 34.9906 39.2581
1 33.9586 41.7562 36.7004
1 33.8464 43.4963 39.3473
1 35.4395 38.9092 36.7285
1 36.9356 41.5361 36.5713
1 36.9061 43.3283 39.2093
1 35.2384 40.6176 39.2744
1 38.5202 38.8382 36.724
1 40.0124 41.5145 36.6832
1 39.998 43.3254 39.2458
1 38.39 40.5487 39.3327
1 41.7014 38.882 36.725
1 43.1937 41.5849 36.7845
1 43.1386 43.411 39.248
1 41.7402 40.6077 39.3744
1 44.733 38.8735 36.5734
1 46.3462 41.6568 36.7562
1 46.375 43.3507 39.3829
1 44.926 40.6617 39.3563
1 47.9715 38.8165 36.6969
1 49.5495 41.5262 36.6629
1 49.6584 43.455 39.2231
1 48.069 40.6305 39.3255
1 30.592 47.226 36.5683
1 30.6691 49.1293 39.0951
1 32.234 44.5342 36.7028
1 33.7673 47.2672 36.6759
1 33.6617 49.1016 39.2386
1 32.0318 46.3517 39.2276
1 35.4392 44.4675 36.7059
1 36.9195 47.1845 36.6992
1 36.8728 48.9681 39.207
1 35.3212 46.2435 39.2428
1 38.4638 44.3639 36.7201
1 40.0503 47.1494 36.6356
1 40.0923 48.9397 39.2618
1 38.4823 46.1929 39.2337
1 41.5836 44.3521 36.614
1 43.1285 47.0669 36.6398
1 43.1509 49.0723 39.2481
1 41.627 46.2109 39.302
1 44.9412 44.3073 36.6672
1 46.5095 46.9985 36.6241
1 46.4952 48.8381 39.2001
1 44.6991 46.1416 39.1573
1 48.0228 44.302 36.6299
1 49.6886 47.1214 36.6609
1 49.6693 48.8786 39.1944
1 47.9905 46.1013 39.2391
1 32.1762 49.9164 36.6651
1 35.2428 49.9232 36.701
1 38.4648 49.9705 36.7385
1 41.5969 49.9784 36.7192
1 44.739 49.8849 36.7729
1 48.0308 49.8038 36.5839
1 46.4294 30.666 41.9537
1 49.6229 30.5825 41.9219
1 36.9733 36.0899 41.9815
1 40.1008 36.013 41.9047
1 41.6946 33.3176 41.7196
1 43.1996 36.046 41.8241
1 44.8953 33.3451 41.8779
1 46.4124 36.0396 41.9414
1 48.0388 33.3752 41.8432
1 49.668 35.9704 42.0086
1 33.8217 41.663 41.9141
1 35.318 38.805 41.9764
1 36.8901 41.5756 41.8773
1 38.4504 38.7553 41.8647
1 39.9851 41.571 41.8276
1 41.5776 38.6928 41.8848
1 43.2363 41.5438 41.8578
1 44.7261 38.7737 41.8728
1 46.4782 41.5736 42.004
1 47.9103 38.8173 41.9283
1 49.6728 41.5662 41.881
1 30.6925 47.4257 41.832
1 32.285 44.4628 41.7404
1 33.5979 47.2557 41.7191
1 35.3231 44.4527 41.822
1 36.8684 47.1261 41.8478
1 38.343 44.3656 41.8223
1 39.984 47.1806 41.7512
1 41.5952 44.4148 41.8272
1 43.2608 47.0907 41.8327
1 44.7926 44.329 41.847
1 46.3767 46.9153 41.8502
1 48.1141 44.2569 41.9366
1 49.7375 47.0576 41.7911
1 32.2025 50.1045 41.7432
1 35.322 49.9378 41.8367
1 38.5001 49.8348 41.8069
1 41.6395 49.8434 41.8622
1 44.9017 49.8301 41.913
1 48.0641 49.7152 41.8932
1 43.3832 32.3346 44.3088
1 46.5089 32.372 44.5168
1 49.5891 32.3836 44.5065
1 37.0068 38.0117 44.5013
1 40.035 37.9065 44.456
1 38.5593 35.3957 44.5397
1 43.1634 37.8102 44.5345
1 41.7558 35.0279 44.368
1 46.3586 37.8208 44.3484
1 44.7652 35.0774 44.4873
1 49.5031 37.8338 44.5266
1 47.9602 35.0855 44.4952
1 33.6653 43.5633 44.4668
1 36.9164 43.5054 44.4002
1 35.4009 40.8795 44.4338
1 40.0609 43.4668 44.3972
1 38.5316 40.728 44.4503
1 43.297 43.3732 44.3179
1 41.6479 40.6711 44.3203
1 46.4299 43.4593 44.5086
1 44.8826 40.6135 44.4753
1 49.6045 43.398 44.3697
1 48.0798 40.6342 44.4657
1 30.6621 49.236 44.5166
1 33.704 49.0132 44.3521
1 32.095 46.3503 44.3342
1 36.9544 48.9127 44.3059
1 35.1783 46.1808 44.3135
1 40.0508 48.9826 44.5272
1 38.4153 46.2203 44.3171
1 43.1925 49.0614 44.4069
1 41.6169 46.3421 44.4369
1 46.4406 48.8207 44.4304
1 44.7745 46.1108 44.4236
1 49.6742 48.868 44.5001
1 47.9868 46.2754 44.4302
1 43.5296 32.4488 49.6565
1 46.1956 30.5702 47.1508
1 46.4906 32.3821 49.6304
1 49.4307 30.5396 47.0664
1 49.7396 32.2367 49.7249
1 37.1639 36.1732 47.061
1 36.9193 37.7735 49.7661
1 40.2332 36.0134 46.956
1 40.0849 37.8209 49.5784
1 38.5868 35.0408 49.6132
1 41.878 33.4287 46.9945
1 43.293 36.0325 47.0312
1 43.3209 37.863 49.65
1 41.8861 35.136 49.7027
1 44.8706 33.3308 47.1039
1 46.3832 36.0501 46.969
1 46.411 37.8739 49.6232
1 45.0114 35.1729 49.6539
1 48.0648 33.2965 47.0652
1 49.5792 35.9898 47.0805
1 49.6351 37.8123 49.6322
1 48.0712 34.9596 49.6403
1 33.8348 41.6152 47.0483
1 33.7073 43.4109 49.5478
1 35.4222 38.8401 47.2362
1 36.8746 41.5948 46.9353
1 36.8541 43.3799 49.6056
1 35.2108 40.7091 49.6076
1 38.526 38.8805 47.0164
1 40.1019 41.5785 47.0289
1 40.0924 43.3801 49.5389
1 38.3792 40.6568 49.5364
1 41.6719 38.8 46.9909
1 43.3189 41.6103 46.9524
1 43.2971 43.3994 49.6306
1 41.7123 40.5149 49.5487
1 44.9035 38.8056 47.001
1 46.4818 41.542 46.9781
1 46.4724 43.4478 49.5112
1 44.8855 40.667 49.4879
1 48.0045 38.8127 47.0056
1 49.7174 41.5396 47.0344
1 49.6964 43.4156 49.5372
1 48.0335 40.6117 49.6166
1 30.7336 47.2274 47.0449
1 30.6336 48.9793 49.5313
1 32.1551 44.4688 46.9842
1 33.7452 47.1154 46.8895
1 33.7897 49.0276 49.5361
1 32.2668 46.2575 49.6302
1 35.309 44.4061 46.9677
1 36.9337 47.2094 46.9178
1 37.019 48.9747 49.6219
1 35.3498 46.2382 49.5562
1 38.5337 44.265 46.9842
1 40.0834 47.0438 46.9934
1 40.1319 48.9446 49.6748
1 38.4876 46.2122 49.4902
1 41.78 44.3608 46.9804
1 43.1545 47.1772 47.1739
1 43.32 49.108 49.6324
1 41.5941 46.1358 49.6815
1 44.776 44.3837 46.9605
1 46.3039 47.2069 47.0991
1 46.3835 49.1461 49.5832
1 44.8581 46.2704 49.6286
1 48.0502 44.3369 46.971
1 49.6225 47.1879 46.9691
1 49.4804 49.07 49.5727
1 48.0156 46.2727 49.5458
1 32.3206 49.8544 47.0994
1 35.3387 49.8816 46.9962
1 38.5169 49.9205 47.1674
1 41.6816 49.9625 46.9989
1 44.8053 49.948 46.9447
1 47.8972 49.9658 46.9704
1 43.4117 32.322 54.8645
1 52.9211 30.6843 52.4853
1 46.6107 32.4281 54.8541
1 56.0098 30.5822 52.2594
1 49.7632 32.4241 54.847
1 37.0078 36.0284 52.3271
1 36.8668 37.9436 54.8297
1 40.2043 35.9412 52.2809
1 40.0613 37.7813 54.7716
1 38.4861 35.2171 54.8555
1 41.8995 33.2731 52.2321
1 43.2671 35.919 52.2333
1 43.3595 37.8957 54.8732
1 41.8114 35.0367 54.8256
1 45.0487 33.2857 52.2765
1 46.5967 36.0262 52.2459
1 46.4517 38.0656 54.852
1 45.0062 35.0934 54.8247
1 48.1459 33.2397 52.2758
1 49.5852 36.0256 52.2454
1 49.5643 37.8903 54.7038
1 47.9619 35.149 54.8429
1 33.8393 41.6997 52.2565
1 33.8971 43.5463 54.768
1 35.3307 38.9029 52.293
1 36.9216 41.552 52.1319
1 36.9922 43.526 54.7664
1 35.4149 40.6888 54.8312
1 38.4916 38.6872 52.2193
1 40.0719 41.6495 52.1375
1 40.0404 43.5415 54.8275
1 38.3823 40.6213 54.761
1 41.6922 38.7118 52.2157
1 43.2667 41.6791 52.223
1 43.2215 43.5811 54.8414
1 41.7033 40.6014 54.7633
1 44.8741 38.7384 52.2789
1 46.5526 41.6799 52.2005
1 46.4272 43.4644 54.8591
1 44.8311 40.8009 54.8191
1 48.0086 38.8081 52.1476
1 49.6108 41.61 52.1929
1 49.6962 43.5255 54.7819
1 47.9933 40.895 54.7366
1 30.7263 47.3357 52.1807
1 30.7589 49.0806 54.7235
1 32.3182 44.3774 52.1488
1 33.8654 47.2288 52.1868
1 33.7952 49.0489 54.8812
1 32.2336 46.1468 54.7281
1 35.4091 44.4117 52.2025
1 36.9588 47.278 52.2225
1 36.9315 49.0458 54.8627
1 35.4077 46.2574 54.6793
1 38.5536 44.5105 52.0902
1 40.1751 47.2429 52.3004
1 40.0589 49.0426 54.8963
1 38.483 46.2864 54.7637
1 41.6979 44.3488 52.1935
1 43.2899 47.2262 52.2751
1 43.1852 49.1085 54.8153
1 41.6909 46.2819 54.782
1 44.8758 44.3844 52.2356
1 46.4565 47.2574 52.1011
1 46.432 49.1422 54.7979
1 44.8901 46.3575 54.8123
1 47.9625 44.4483 52.1022
1 49.6339 47.2073 52.1521
1 49.6033 49.0824 54.7939
1 48.0942 46.1924 54.6541
1 32.355 49.9958 52.2693
1 35.3853 49.965 52.2587
1 38.5278 50.0031 52.314
1 41.6785 50.0457 52.2841
1 44.8803 49.9513 52.2513
1 47.9795 49.9543 52.1519
1 43.469 32.4052 60.1469
1 46.6581 30.6093 57.4067
1 46.57 32.3704 60.0702
1 49.7305 30.6165 57.4184
1 49.8361 32.36 59.9568
1 36.8897 36.0644 57.3292
1 36.8891 37.8834 59.9639
1 40.1438 36.0359 57.4655
1 40.0801 37.8891 60.081
1 38.5845 35.2853 60.0206
1 41.853 33.2244 57.4811
1 43.3736 36.0064 57.3826
1 43.2531 37.9508 60.0125
1 41.7864 35.1237 60.0401
1 44.9687 33.3352 57.4385
1 46.4412 36.0563 57.4009
1 46.4426 37.9523 59.9833
1 44.8519 35.1138 59.9843
1 48.0936 33.2935 57.444
1 49.589 36.1997 57.365
1 49.5831 38.0176 59.9608
1 48.0205 35.1804 59.9216
1 33.8962 41.6989 57.4476
1 33.8717 43.6634 59.9036
1 35.4043 38.9068 57.413
1 36.9859 41.6404 57.4682
1 36.8873 43.5094 59.9781
1 35.3908 40.7264 59.9797
1 38.4498 38.7 57.4084
1 40.0488 41.5413 57.3367
1 40.1327 43.4309 60.0871
1 38.5077 40.6454 60.1119
1 41.6441 38.8258 57.4712
1 43.2097 41.6237 57.3873
1 43.2336 43.4746 59.8976
1 41.6904 40.6784 60.0041
1 44.8457 38.9126 57.3857
1 46.4734 41.6616 57.3565
1 46.5444 43.5799 59.9256
1 44.9205 40.7637 60
1 47.9223 38.8523 57.345
1 49.5966 41.6689 57.3831
1 49.6663 43.4763 60.0066
1 48.0664 40.7707 59.9302
1 30.6469 47.1968 57.3728
1 30.5467 48.9075 59.9531
1 32.2401 44.4199 57.349
1 33.7526 47.1296 57.3151
1 33.5766 49.0606 59.9577
1 32.0976 46.2618 59.9193
1 35.4296 44.452 57.3094
1 36.9005 47.2585 57.435
1 36.9112 49.0422 59.9927
1 35.2453 46.3242 59.973
1 38.5208 44.4106 57.3969
1 40.0744 47.2247 57.4205
1 39.963 48.9738 59.9263
1 38.4481 46.2635 59.9065
1 41.6113 44.3318 57.3824
1 43.2549 47.208 57.3942
1 43.1988 48.9948 59.9971
1 41.7086 46.2875 59.9916
1 44.881 44.565 57.3667
1 46.4775 47.2688 57.2988
1 46.4605 49.0385 59.9508
1 44.8341 46.3082 59.897
1 48.0795 44.5158 57.3505
1 49.6204 47.1597 57.2911
1 49.5923 49.0582 59.9207
1 48.0793 46.1782 59.8838
1 32.1154 50.0179 57.3723
1 35.2545 49.9043 57.438
1 38.433 49.9764 57.5039
1 41.6102 49.9399 57.3219
1 44.892 49.9894 57.3437
1 48.0275 50.0654 57.3167
1 43.4135 32.4602 65.2198
1 46.368 30.6592 62.7474
1 46.479 32.5015 65.1505
1 49.4478 30.6925 62.5958
1 49.6415 32.3849 65.2845
1 37.0721 36.1887 62.6572
1 36.9449 37.8559 65.2493
1 40.1333 35.9917 62.5996
1 40.1384 37.8266 65.2127
1 38.6131 35.2032 65.3026
1 41.791 33.3426 62.6053
1 43.2923 36.1538 62.6432
1 43.2542 38.0076 65.1456
1 41.8563 35.1373 65.2656
1 44.8825 33.4323 62.7004
1 46.5386 36.0903 62.5088
1 46.4577 38.0537 65.124
1 44.9582 35.2165 65.1792
1 48.0805 33.3329 62.6065
1 49.69 36.1618 62.6137
1 49.6198 37.9928 65.0165
1 48.0727 35.1677 65.1292
1 34.0567 41.7313 62.541
1 33.7756 43.4041 65.1134
1 35.6108 38.9972 62.5897
1 37.0384 41.7128 62.5878
1 36.8977 43.4652 65.2202
1 35.3428 40.7536 65.1631
1 38.6044 38.7811 62.7245
1 40.1223 41.6051 62.5519
1 40.1024 43.4725 65.0512
1 38.425 40.7461 65.1929
1 41.6696 38.8168 62.5837
1 43.3454 41.5829 62.541
1 43.2476 43.5342 65.1518
1 41.5935 40.6809 65.1061
1 44.869 38.8677 62.5663
1 46.453 41.7147 62.5351
1 46.2766 43.4856 65.0897
1 44.8299 40.7964 65.1199
1 48.013 38.9656 62.5174
1 49.6384 41.6158 62.4919
1 49.5862 43.5299 65.1137
1 48.0257 40.7671 65.1906
1 30.5852 47.0391 62.586
1 30.578 49.0126 65.1522
1 32.258 44.4235 62.5769
1 33.6909 47.2128 62.4585
1 33.6915 48.9362 65.0639
1 32.2519 46.3399 65.1314
1 35.3876 44.3518 62.5212
1 36.8677 47.2246 62.6049
1 36.9038 49.0453 65.1034
1 35.4122 46.2221 65.0795
1 38.5403 44.434 62.5166
1 40.0511 47.175 62.5423
1 39.9915 49.0059 65.1572
1 38.4743 46.2057 65.084
1 41.692 44.4283 62.5248
1 43.2109 47.1719 62.5772
1 43.106 49.0622 65.0819
1 41.5341 46.2582 65.1035
1 44.8982 44.4213 62.4308
1 46.2959 47.289 62.5115
1 46.3412 49.0602 65.1135
1 44.7379 46.2683 65.091
1 48.1264 44.5628 62.5586
1 49.5444 47.2522 62.5958
1 49.5628 49.0143 65.1863
1 47.9367 46.2593 65.1804
1 32.051 49.898 62.4855
1 35.2347 50.0656 62.5576
1 38.4461 49.9528 62.4503
1 41.6817 49.9514 62.4874
1 44.7271 49.99 62.567
1 47.9548 50.011 62.5201
1 43.4486 32.4285 70.5068
1 46.3824 30.7779 67.6918
1 46.576 32.4264 70.3983
1 49.6256 30.6983 67.9349
1 49.7359 32.5452 70.3636
1 37.0263 36.1779 67.912
1 36.8824 37.9701 70.3416
1 40.1404 36.1031 67.8056
1 40.1214 38.0571 70.3523
1 38.602 35.4175 70.4359
1 41.7405 33.4424 67.7218
1 43.371 36.1963 67.9527
1 43.2956 38.0544 70.3844
1 41.7654 35.2902 70.4164
1 44.8431 33.5171 67.8696
1 46.5416 36.2119 67.8064
1 46.4381 38.0159 70.4395
1 44.9027 35.1707 70.3664
1 48.0693 33.3613 67.7829
1 49.6503 36.3424 67.6835
1 49.5947 38.1053 70.3794
1 48.0307 35.2189 70.3646
1 33.8689 41.6747 67.7223
1 33.7038 43.4728 70.3037
1 35.3342 38.9189 67.7401
1 36.8897 41.6321 67.7344
1 36.7913 43.4774 70.359
1 35.268 40.7347 70.2608
1 38.5671 38.8422 67.7871
1 40.1041 41.7151 67.7612
1 40.0836 43.4588 70.3651
1 38.4769 40.7031 70.3921
1 41.7887 38.873 67.7012
1 43.3606 41.6845 67.7688
1 43.339 43.5886 70.3078
1 41.6996 40.7117 70.3486
1 44.9415 38.999 67.7355
1 46.473 41.744 67.7868
1 46.4352 43.6871 70.3354
1 44.8897 40.8244 70.396
1 48.0397 39.0594 67.8448
1 49.6696 41.7097 67.785
1 49.6405 43.6689 70.3842
1 47.9816 40.9244 70.4383
1 30.7503 47.3781 67.8394
1 30.6231 49.0888 70.3222
1 32.2374 44.482 67.708
1 33.8155 47.1935 67.7028
1 33.7536 49.0999 70.4203
1 32.2079 46.3661 70.3339
1 35.3081 44.4124 67.6369
1 36.8879 47.239 67.6967
1 36.8313 48.9516 70.3291
1 35.3372 46.2387 70.3702
1 38.572 44.4346 67.7258
1 40.0169 47.153 67.7199
1 40.0853 49.1 70.3906
1 38.4929 46.2582 70.4201
1 41.7145 44.3796 67.7088
1 43.0783 47.2496 67.6397
1 43.2722 49.147 70.4644
1 41.6483 46.2862 70.2774
1 44.9138 44.4988 67.801
1 46.3788 47.3158 67.7549
1 46.3663 49.2101 70.3631
1 44.8404 46.4511 70.3789
1 48.0619 44.4776 67.6825
1 49.5677 47.2067 67.7574
1 49.5707 49.1725 70.4354
1 47.9208 46.3867 70.378
1 32.3057 49.9433 67.723
1 35.3942 50.0526 67.682
1 38.4723 49.9142 67.7472
1 41.6126 49.8572 67.7854
1 44.7432 49.9146 67.7366
1 47.9996 49.983 67.8639
1 43.4486 32.4602 75.5975
1 46.4603 30.7633 73.0847
1 46.6182 32.498 75.6021
1 49.6792 30.8058 72.7991
1 49.7339 32.4403 75.5301
1 36.9051 36.2217 73.0091
1 36.8724 38.1629 75.5907
1 40.1077 36.2157 72.9494
1 40.1213 38.0372 75.6298
1 38.4801 35.5216 75.5506
1 41.7273 33.4895 73.0056
1 43.2745 36.2282 72.9395
1 43.2732 38.0664 75.5237
1 41.7333 35.2087 75.5614
1 44.8809 33.3814 72.95
1 46.4486 36.0697 72.8591
1 46.4012 38.0627 75.57
1 44.8 35.2584 75.5317
1 48.1313 33.4446 72.9637
1 49.7778 36.3144 73.0215
1 49.6327 38.1253 75.638
1 47.999 35.2423 75.5299
1 33.8335 41.7016 72.9534
1 33.8959 43.5185 75.5678
1 35.36 38.9061 72.8509
1 36.9806 41.6035 72.9457
1 36.8903 43.4878 75.5384
1 35.4302 40.7325 75.6014
1 38.4823 38.8638 72.928
1 40.2418 41.916 73.0368
1 40.1164 43.6895 75.6017
1 38.5585 40.7937 75.5359
1 41.6412 39.0317 72.9322
1 43.3777 41.7342 72.924
1 43.3117 43.5208 75.5669
1 41.7977 40.8536 75.564
1 44.9793 38.9154 72.9939
1 46.5129 41.8493 73.0202
1 46.4351 43.7265 75.5645
1 44.894 40.7498 75.541
1 48.1038 39.0122 73.0478
1 49.7558 41.9148 73.0134
1 49.6999 43.6678 75.6195
1 48.0703 40.893 75.6543
1 30.6493 47.2899 72.9443
1 30.6829 49.169 75.4908
1 32.3364 44.4994 72.8628
1 33.6841 47.3236 72.8951
1 33.6918 49.1268 75.472
1 32.2365 46.366 75.4207
1 35.3686 44.5068 72.9289
1 36.9144 47.1319 72.8659
1 36.8519 49.0705 75.5999
1 35.3719 46.3035 75.4527
1 38.5433 44.5391 73.0437
1 40.1646 47.2312 73.0489
1 40.0709 49.0848 75.6117
1 38.5052 46.4281 75.5792
1 41.8315 44.5861 72.945
1 43.2271 47.3129 72.9733
1 43.2371 49.125 75.6165
1 41.7358 46.3579 75.6229
1 44.9041 44.603 72.9767
1 46.4728 47.4103 72.9898
1 46.4828 49.1738 75.6508
1 44.8888 46.4129 75.5061
1 48.0953 44.6073 72.969
1 49.6285 47.3448 72.9403
1 49.6445 49.1387 75.5434
1 48.0331 46.4353 75.4301
1 32.1461 50.0572 72.9022
1 35.2404 50.0822 72.9047
1 38.4504 50.0034 73.0207
1 41.6913 50.0361 73.0727
1 44.8475 50.0577 72.9937
1 47.9848 50.1446 72.9955
1 43.4687 32.57 80.8113
1 46.366 30.9752 78.3113
1 46.5149 32.64 80.9016
1 49.5073 30.915 78.1123
1 49.559 32.4855 80.7974
1 37.0431 36.3722 78.2436
1 36.9755 38.1402 80.796
1 40.1341 36.4388 78.2294
1 40.1034 38.097 80.7541
1 38.5981 35.3968 80.857
1 42.0047 33.3771 78.1899
1 43.2292 36.3183 78.1119
1 43.2207 37.9964 80.7849
1 41.7243 35.3171 80.6289
1 44.9321 33.6246 78.2086
1 46.3468 36.2849 78.1817
1 46.4024 38.0485 80.8257
1 44.8245 35.2889 80.7734
1 47.9968 33.6317 78.1163
1 49.5628 36.2597 78.2187
1 49.6514 38.1643 80.8579
1 47.9475 35.4137 80.8025
1 33.7904 41.735 78.1706
1 33.7213 43.7256 80.7248
1 35.4246 39.019 78.2868
1 36.8707 41.7887 78.0889