5538
Atoms. Timestep: 30000
1 43.2763 30.7941 0.0572398
1 46.4936 30.9692 5.22205
1 46.5152 30.7765 -0.0231954
1 49.6845 31.0114 5.22525
1 49.68 30.941 -0.0572973
1 38.3334 37.174 2.70563
1 38.3764 38.9487 0.129198
1 40.0401 34.433 2.63614
1 40.0105 36.3706 -0.0175258
1 38.4586 33.629 -0.0323922
1 40.0894 30.9201 -0.129138
1 43.282 34.3919 2.69632
1 43.2244 36.2073 0.164443
1 41.6577 33.6132 0.046348
1 44.8599 31.7884 2.57899
1 46.5355 34.362 2.68293
1 46.3928 36.2808 0.0499002
1 44.7764 33.5715 0.0756633
1 48.0272 31.7428 2.60352
1 49.6012 34.392 2.71065
1 49.7069 36.2284 0.0625437
1 48.0467 33.491 0.0855597
1 35.2517 42.6652 2.7221
1 35.3236 44.5539 0.0551379
1 36.9442 39.962 2.69391
1 38.4781 42.6299 2.73571
1 38.4504 44.4903 0.132606
1 36.8146 41.7886 0.0750616
1 40.0671 39.9525 2.64639
1 41.7258 42.5307 2.72493
1 41.6341 44.4864 0.129384
1 40.0356 41.7263 0.000894328
1 41.6358 37.1951 2.70447
1 43.336 39.9036 2.65032
1 43.1803 41.7608 0.0665238
1 41.6001 39.1087 -0.00173938
1 44.765 37.2056 2.72146
1 46.463 39.8136 2.68459
1 46.5818 41.7337 0.0937529
1 44.8053 38.9916 -0.0223935
1 48.0492 37.1576 2.68639
1 49.7551 39.9165 2.70503
1 49.6792 41.7451 0.0645887
1 48.0261 38.9991 0.0984349
1 32.238 48.0882 2.70493
1 32.1929 49.9741 0.103951
1 33.693 45.3888 2.6776
1 35.2979 48.1298 2.73316
1 35.2516 50.0287 0.115675
1 33.8436 47.2478 0.0523228
1 36.8047 45.435 2.75813
1 38.4423 48.2139 2.74696
1 38.4835 49.9599 0.12871
1 36.9385 47.2575 0.0418771
1 39.9441 45.405 2.78371
1 41.6245 48.1706 2.70593
1 41.7935 49.9955 0.151157
1 40.1639 47.2044 -0.0201543
1 43.1649 45.376 2.71215
1 44.8456 48.2039 2.6817
1 44.9409 50.1567 0.139247
1 43.3705 47.2631 0.152875
1 44.7533 42.5942 2.72121
1 46.4035 45.298 2.7437
1 46.4913 47.3012 0.177261
1 44.8318 44.4078 0.11636
1 48.0723 42.5798 2.71973
1 49.7181 45.4608 2.66332
1 49.6383 47.3311 0.170241
1 48.0605 44.5528 0.195411
1 33.7904 50.9225 2.75732
1 36.9403 50.8274 2.94318
1 40.0934 50.88 2.77948
1 43.3437 50.8434 2.76692
1 46.4699 50.8824 2.69736
1 48.0902 48.1595 2.76909
1 43.3238 32.7607 7.9272
1 48.1148 30.0909 7.78101
1 46.4765 32.6481 7.8754
1 51.3151 29.8901 7.85485
1 49.7178 32.606 7.81526
1 37.1212 36.2518 5.48742
1 37.1926 37.96 8.04414
1 40.1204 36.3114 5.31665
1 40.1559 38.0533 7.93526
1 38.6281 35.2971 7.99443
1 41.5581 31.6944 2.4201
1 43.3299 36.1553 5.29625
1 43.4061 38.0665 7.88449
1 41.7564 35.384 7.88633
1 44.8054 33.5586 5.35147
1 46.4868 36.2868 5.23539
1 46.5212 38.0161 7.83605
1 44.9193 35.3771 7.95316
1 48.032 33.5508 5.26811
1 49.6551 36.3101 5.18221
1 49.6622 38.1158 7.98423
1 48.1066 35.3106 7.84123
1 33.8664 41.7713 5.64267
1 33.8042 43.5322 7.97417
1 35.5581 38.9756 5.47279
1 36.9014 41.7346 5.34304
1 36.8705 43.5294 7.96134
1 35.4885 40.8234 8.03594
1 38.6173 39.0592 5.32082
1 40.108 41.7434 5.35709
1 40.1088 43.5005 7.99977
1 38.6244 40.7677 7.9125
1 41.7759 38.9105 5.34752
1 43.265 41.724 5.27357
1 43.3659 43.4421 7.93418
1 41.8001 40.722 7.85426
1 44.8196 39.0481 5.2804
1 46.4624 41.7275 5.30059
1 46.5263 43.5329 7.85339
1 44.9274 40.7527 7.89433
1 48.0788 39.0266 5.307
1 49.7191 41.6619 5.27921
1 49.6999 43.4712 7.80074
1 48.0271 40.7626 8.02598
1 30.7778 47.3265 5.29339
1 30.6268 49.0103 7.89861
1 32.1903 44.4884 5.35406
1 33.8106 47.1847 5.32299
1 33.6956 49.1758 7.99908
1 32.125 46.2165 7.98723
1 35.2811 44.4943 5.29926
1 36.8647 47.207 5.34276
1 36.8436 49.0796 7.98032
1 35.2149 46.2639 7.91045
1 38.5278 44.4411 5.40393
1 39.9941 47.2275 5.38324
1 39.96 48.9479 8.02527
1 38.4071 46.1537 7.95628
1 41.5957 44.4809 5.40914
1 43.2388 47.2124 5.27233
1 43.2636 48.9948 7.91192
1 41.8142 46.3053 8.01328
1 44.8475 44.4788 5.37089
1 46.4673 47.1666 5.33253
1 46.3786 49.1178 7.98271
1 44.934 46.2736 7.89672
1 48.108 44.4845 5.25586
1 49.7056 47.301 5.25715
1 49.6458 49.1463 7.95324
1 48.1373 46.4024 7.89916
1 32.1469 49.9959 5.3429
1 35.3295 49.9807 5.42253
1 38.4578 49.9661 5.47121
1 41.6916 50.0218 5.37337
1 44.8494 49.977 5.2948
1 48.1246 49.9796 5.36567
1 43.3741 32.5668 12.9231
1 46.6035 30.8637 10.4117
1 46.5137 32.3868 13.1934
1 49.6597 30.7431 10.2759
1 49.5381 32.4844 13.0025
1 37.2278 36.1431 10.6282
1 37.0262 38.0367 13.2298
1 40.1852 36.2437 10.4699
1 40.1215 37.8964 13.3233
1 38.6889 35.1405 13.213
1 41.654 33.5657 10.4746
1 43.2503 36.1981 10.4227
1 43.2678 37.9137 13.1465
1 41.6685 35.3143 13.1106
1 44.9016 33.5526 10.3924
1 46.4973 36.1538 10.5119
1 46.4481 37.8697 13.0555
1 44.8743 35.1453 12.9695
1 48.1469 33.4854 10.4632
1 49.6955 36.2085 10.4988
1 49.724 37.8676 13.1482
1 47.9916 35.1745 13.1006
1 33.8935 41.6654 10.7021
1 33.6873 43.6377 13.1323
1 35.4975 38.9346 10.4797
1 36.9991 41.6 10.6384
1 36.9099 43.417 13.1792
1 35.2104 40.7081 13.1619
1 38.6135 38.9552 10.6563
1 40.1904 41.6238 10.5372
1 40.0481 43.4159 13.1465
1 38.5198 40.7098 13.2261
1 41.8073 38.9962 10.5392
1 43.3569 41.6414 10.4341
1 43.365 43.392 13.1985
1 41.7634 40.6476 13.2505
1 44.93 38.8298 10.4336
1 46.4115 41.6421 10.5948
1 46.5189 43.4185 13.2465
1 44.9526 40.6379 13.0853
1 48.1084 38.906 10.5067
1 49.6677 41.5994 10.4598
1 49.6389 43.4573 13.1183
1 48.082 40.596 13.1399
1 30.6979 47.1064 10.5621
1 30.4576 49.1236 13.1728
1 32.1074 44.4906 10.6643
1 33.7036 47.0723 10.506
1 33.6553 48.9965 13.1754
1 32.1283 46.4337 13.2672
1 35.3441 44.4631 10.5634
1 36.9023 47.2 10.4578
1 36.8198 48.9974 13.1599
1 35.2203 46.3276 13.0196
1 38.487 44.3972 10.6427
1 40.1274 47.1987 10.5628
1 40.1612 49.0729 13.1519
1 38.3584 46.1535 13.0953
1 41.7036 44.467 10.618
1 43.3638 47.1807 10.5623
1 43.2987 49.0421 13.2274
1 41.6764 46.1468 13.2007
1 44.942 44.3695 10.5693
1 46.5006 47.1249 10.5148
1 46.5045 49.0104 13.1978
1 44.8402 46.3165 13.1281
1 48.0683 44.3304 10.5366
1 49.7117 47.3159 10.5445
1 49.5972 49.0996 13.2429
1 48.0906 46.2184 13.1299
1 32.0523 49.8973 10.6115
1 35.2632 49.8979 10.6118
1 38.4693 49.9047 10.6189
1 41.6924 49.8165 10.5594
1 44.9764 49.9581 10.6084
1 47.977 49.9151 10.599
1 43.4269 32.3599 18.2948
1 43.4988 30.7369 15.5049
1 46.4981 32.3757 18.2794
1 46.5007 30.5341 15.8109
1 49.685 32.5257 18.259
1 36.9589 36.0601 15.736
1 36.9126 37.9115 18.3502
1 40.1848 36.0667 15.8395
1 40.1454 37.8252 18.3614
1 38.5407 35.2191 18.343
1 41.8273 33.3822 15.6704
1 43.3104 36.0724 15.7527
1 43.2612 37.8458 18.3346
1 41.8168 35.1259 18.4426
1 44.9047 33.3406 15.6438
1 46.4536 36.0791 15.6436
1 46.5216 37.8922 18.2946
1 44.9209 35.0585 18.3299
1 48.0275 33.3275 15.6868
1 49.6996 36.0508 15.6197
1 49.6892 37.9097 18.3387
1 47.9951 35.1135 18.2547
1 33.8018 41.811 15.7178
1 33.739 43.5262 18.3263
1 35.3157 38.9785 15.8169
1 36.9917 41.692 15.7852
1 36.8908 43.4411 18.3341
1 35.445 40.7758 18.3574
1 38.474 38.8506 15.8702
1 40.0941 41.6286 15.7708
1 40.1324 43.3837 18.3628
1 38.391 40.5583 18.4179
1 41.6094 38.7811 15.8038
1 43.2716 41.4779 15.7587
1 43.3646 43.4588 18.3573
1 41.649 40.6539 18.4356
1 44.8633 38.7802 15.7148
1 46.4661 41.7094 15.7645
1 46.5087 43.4229 18.3553
1 44.8384 40.656 18.3655
1 48.0645 38.8056 15.7261
1 49.6381 41.6572 15.6888
1 49.6328 43.4135 18.2633
1 48.0184 40.6657 18.3906
1 30.588 47.4142 15.7959
1 30.6753 49.069 18.315
1 32.0166 44.3924 15.8197
1 33.7426 47.1836 15.7801
1 33.7259 48.9957 18.2639
1 32.1569 46.2052 18.2886
1 35.1782 44.3781 15.7497
1 36.8473 47.1393 15.7215
1 36.7324 48.9156 18.2849
1 35.2248 46.1241 18.3181
1 38.5022 44.4681 15.682
1 40.1758 47.1684 15.7405
1 40.0399 48.9082 18.3444
1 38.4177 46.2152 18.3329
1 41.6371 44.3486 15.8404
1 43.2882 47.1413 15.7877
1 43.2284 48.9293 18.3878
1 41.6297 46.184 18.3761
1 44.8041 44.446 15.7301
1 46.4538 47.1138 15.7597
1 46.4042 49.0573 18.4677
1 44.8655 46.2538 18.3597
1 48.0744 44.428 15.7888
1 49.6483 47.2367 15.7746
1 49.5886 48.9657 18.4505
1 48.0107 46.2035 18.4268
1 32.0812 50.0315 15.7386
1 35.2272 50.035 15.6659
1 38.445 49.7581 15.7189
1 41.6526 49.899 15.7852
1 44.8794 49.843 15.8399
1 48.0786 49.9427 15.9066
1 43.4075 32.3267 23.5503
1 46.8959 30.7236 20.9449
1 46.5542 32.3882 23.4935
1 49.9849 30.6043 20.6721
1 49.7273 32.3991 23.4069
1 37.1653 36.1016 20.8618
1 36.9237 37.8966 23.5721
1 40.1296 36.0455 20.9286
1 40.0648 37.8854 23.5627
1 38.5848 35.1233 23.6115
1 41.8809 33.3694 20.9332
1 43.3822 36.0355 20.974
1 43.3238 37.9514 23.4688
1 41.6204 35.0418 23.5951
1 44.9668 33.2151 20.8644
1 46.5641 35.9692 20.9034
1 46.4783 37.7553 23.5298
1 44.9061 35.0907 23.5231
1 48.131 33.3529 20.8269
1 49.7096 36.034 20.8268
1 49.6642 37.8952 23.3835
1 48.0497 35.1304 23.385
1 33.824 41.7005 20.8653
1 33.6887 43.4327 23.5517
1 35.5128 38.8603 20.9468
1 36.8801 41.551 20.9923
1 36.695 43.3583 23.5764
1 35.2418 40.7045 23.5768
1 38.5377 38.7213 20.9951
1 40.0192 41.5397 20.9969
1 40.0065 43.4413 23.5837
1 38.3301 40.6765 23.5664
1 41.7266 38.7673 20.9029
1 43.3178 41.5683 20.8825
1 43.1678 43.434 23.5668
1 41.6608 40.6917 23.453
1 44.9403 38.751 20.9169
1 46.4271 41.5844 20.8403
1 46.4279 43.3881 23.3827
1 44.8595 40.669 23.5209
1 48.0741 38.8797 20.9129
1 49.6562 41.713 20.9431
1 49.629 43.4565 23.5378
1 47.9658 40.6605 23.5044
1 30.5713 47.1915 20.8681
1 30.5621 49.0428 23.3963
1 32.1912 44.372 20.8796
1 33.7102 47.1114 20.8733
1 33.5779 49.035 23.4376
1 32.0848 46.2289 23.5089
1 35.3144 44.377 20.916
1 36.8583 47.1618 20.9263
1 36.648 48.9407 23.4748
1 35.196 46.1854 23.4867
1 38.4594 44.3619 20.9031
1 39.9871 47.0249 20.9375
1 39.9612 48.8513 23.5307
1 38.2746 46.0894 23.531
1 41.6336 44.3283 20.9247
1 43.2158 47.1694 20.8495
1 43.0701 48.9652 23.5925
1 41.5154 46.0639 23.4946
1 44.8556 44.3775 20.8823
1 46.3683 47.225 21.0668
1 46.3053 48.9846 23.6
1 44.7601 46.1983 23.4994
1 48.0789 44.5293 20.8946
1 49.5815 47.2016 20.9872
1 49.5623 49.0623 23.6081
1 47.9932 46.1644 23.5964
1 32.1695 49.9807 20.8208
1 35.2236 49.8764 20.8668
1 38.3748 49.8766 21.0046
1 41.5022 49.8373 20.8951
1 44.8908 49.9189 21.0512
1 47.9936 50.0053 20.9725
1 43.486 30.6885 26.1432
1 46.4884 30.874 26.0521
1 36.9848 36.107 26.1427
1 40.1003 35.9934 26.156
1 41.7782 33.3147 26.1856
1 43.3718 36.0581 26.0684
1 44.9491 33.3874 26.1351
1 46.4237 36.1463 26.1099
1 48.0707 33.4516 26.111
1 49.6478 36.0881 25.8995
1 33.999 41.826 26.1634
1 35.5076 38.95 26.1698
1 36.8984 41.6188 26.2026
1 38.4983 38.8148 26.1854
1 40.0378 41.6102 26.0298
1 41.7158 38.7378 26.126
1 43.2145 41.4936 26.0814
1 44.8723 38.8685 26.0766
1 46.5357 41.4207 26.2361
1 48.1195 38.7864 26.0591
1 49.6551 41.4924 26.0625
1 30.6678 47.0771 26.0301
1 32.1929 44.4211 26.1893
1 33.7815 47.1181 26.0986
1 35.3132 44.4056 26.1356
1 36.8828 47.1485 26.1013
1 38.3767 44.366 26.1485
1 39.9874 47.1388 26.1141
1 41.5956 44.4009 26.1361
1 43.175 47.0567 26.1237
1 44.806 44.2221 26.0735
1 46.4052 47.0976 26.0671
1 47.9473 44.2973 26.1325
1 49.6605 47.1125 26.0086
1 32.1496 49.8325 26.132
1 35.123 49.91 26.1261
1 38.2915 49.9582 26.1424
1 41.56 49.8254 26.2548
1 44.7744 49.8168 26.2065
1 47.9696 49.9115 26.0918
1 43.3388 32.5836 28.6729
1 46.3859 32.3093 28.7065
1 49.6283 32.3506 28.681
1 36.9287 38.0102 28.7892
1 40.0163 37.8096 28.7427
1 38.4811 35.2831 28.674
1 43.2255 37.8961 28.7433
1 41.7117 35.1106 28.7702
1 46.3711 37.9546 28.7896
1 44.8526 35.1703 28.7361
1 49.5561 37.917 28.6151
1 47.9715 35.1235 28.7547
1 33.7386 43.3738 28.7801
1 36.7982 43.4028 28.7804
1 35.2941 40.6697 28.7656
1 40.126 43.4012 28.7362
1 38.5463 40.6753 28.6354
1 43.2855 43.4011 28.7117
1 41.675 40.6149 28.6896
1 46.4863 43.4115 28.6853
1 44.8097 40.6568 28.7435
1 49.6453 43.2615 28.7352
1 48.0774 40.6729 28.8306
1 30.5634 48.947 28.7573
1 33.6469 48.8913 28.7788
1 32.0588 46.1866 28.7404
1 36.8281 48.8056 28.7143
1 35.1735 46.1049 28.7508
1 40.0067 48.9513 28.7574
1 38.456 46.1194 28.7364
1 43.3617 48.952 28.7043
1 41.7586 46.1936 28.7406
1 46.5922 48.8654 28.7932
1 44.9049 46.1482 28.6037
1 49.5652 48.9338 28.7489
1 48.0944 46.174 28.6378
1 43.455 32.4335 34.0294
1 46.5648 30.6227 31.285
1 46.5506 32.4479 33.9924
1 49.7063 30.77 31.3048
1 49.7748 32.5779 33.9277
1 37.0011 36.1564 31.208
1 37.0161 37.8829 33.8652
1 40.1287 36.0742 31.2968
1 40.1066 37.8717 33.9286
1 38.5035 35.2925 33.9659
1 41.8439 33.3438 31.3082
1 43.3308 36.0593 31.3311
1 43.3635 37.8284 33.9712
1 41.8041 35.1035 33.8921
1 44.9491 33.2792 31.3653
1 46.465 36.0659 31.3098
1 46.5069 37.8118 33.9546
1 44.8754 35.043 33.9027
1 48.0369 33.4603 31.3737
1 49.627 36.1601 31.305
1 49.6772 37.9271 33.925
1 48.122 35.1329 33.917
1 33.8699 41.6392 31.4917
1 33.8543 43.3721 34.0825
1 35.3389 38.7964 31.353
1 36.9931 41.6148 31.282
1 36.982 43.3337 33.872
1 35.461 40.5913 34.0738
1 38.4312 38.861 31.3747
1 40.0782 41.5539 31.3302
1 40.1992 43.3128 33.9523
1 38.5931 40.6398 33.9206
1 41.6072 38.7042 31.4231
1 43.2052 41.5025 31.3272
1 43.2951 43.4248 34.0205
1 41.7223 40.6077 33.9232
1 44.8326 38.7505 31.3619
1 46.4138 41.5312 31.2567
1 46.472 43.3498 33.8791
1 44.9418 40.6429 33.9872
1 48.0074 38.8277 31.3945
1 49.7234 41.5177 31.3375
1 49.644 43.3101 33.9778
1 47.9625 40.6297 33.9186
1 30.7376 47.1267 31.4018
1 30.747 48.8937 33.8989
1 32.3872 44.3375 31.4451
1 33.7869 47.1041 31.3809
1 33.8655 48.919 34.0566
1 32.2728 46.2541 34.0182
1 35.4133 44.4274 31.4233
1 36.9248 47.1778 31.4422
1 37.0918 48.8976 34.0021
1 35.4193 46.2192 33.9906
1 38.5895 44.3356 31.3698
1 40.1784 47.073 31.2852
1 40.2262 48.8456 33.9402
1 38.6714 46.0965 34.0147
1 41.7213 44.2807 31.3482
1 43.4451 47.059 31.3195
1 43.3605 48.873 33.9753
1 41.7519 46.1338 33.9661
1 44.9931 44.3368 31.2796
1 46.6479 47.1322 31.2808
1 46.5546 48.9432 33.9972
1 44.9653 46.1684 33.921
1 48.0924 44.3517 31.2057
1 49.7199 47.1739 31.3543
1 49.6879 48.9801 33.8963
1 48.1157 46.1389 33.8852
1 32.1436 49.8594 31.3197
1 35.2669 49.8172 31.3525
1 38.4749 49.9227 31.3121
1 41.7391 49.9548 31.3343
1 44.9207 49.7839 31.4458
1 47.9738 49.9534 31.3387
1 43.4404 32.5074 39.2004
1 43.5131 30.6297 36.6741
1 46.5947 32.3286 39.1649
1 46.6136 30.6759 36.5689
1 49.6234 32.3909 39.1647
1 37.0218 36.1111 36.6327
1 36.9366 37.9923 39.2227
1 40.1993 36.0513 36.5548
1 40.09 37.867 39.156
1 38.5245 35.2306 39.2275
1 41.9257 33.3053 36.6532
1 43.419 35.9104 36.5666
1 43.3342 37.747 39.212
1 41.7482 35.1222 39.1875
1 45.0365 33.2458 36.5419
1 46.5105 36.0833 36.5931
1 46.5455 37.9516 39.2855
1 44.9737 35.1548 39.2494
1 48.1324 33.4041 36.5697
1 49.7111 36.0609 36.5024
1 49.7698 37.8396 39.1476
1 48.1504 35.2247 39.1424
1 33.9167 41.6795 36.5543
1 33.8336 43.6093 39.1692
1 35.5105 38.8433 36.6154
1 36.9452 41.6571 36.5788
1 37.0161 43.4388 39.1853
1 35.4149 40.7702 39.147
1 38.5335 38.8011 36.5742
1 40.1502 41.4856 36.5756
1 40.1776 43.3926 39.2159
1 38.5773 40.6247 39.2626
1 41.6525 38.6916 36.5428
1 43.3744 41.5858 36.4617
1 43.3339 43.3567 39.0753
1 41.7447 40.6671 39.0423
1 44.7679 38.7189 36.4354
1 46.4887 41.5784 36.5542
1 46.4447 43.3817 39.1605
1 44.863 40.6111 39.2685
1 48.0911 38.878 36.5218
1 49.7599 41.6204 36.6106
1 49.7056 43.4171 39.1854
1 48.1291 40.703 39.1678
1 30.7193 47.1309 36.5225
1 30.7557 49.1701 39.1984
1 32.2854 44.421 36.6456
1 33.8208 47.1805 36.6411
1 33.8609 49.0989 39.1281
1 32.2617 46.3105 39.1771
1 35.3926 44.4038 36.588
1 37.005 47.0729 36.617
1 37.075 49.0222 39.0803
1 35.3755 46.2954 39.2095
1 38.5489 44.303 36.5266
1 40.1815 47.1493 36.6744
1 40.1995 49.0677 39.3391
1 38.6624 46.1757 39.3253
1 41.7295 44.3269 36.5655
1 43.29 47.1022 36.4814
1 43.3842 48.954 39.2074
1 41.809 46.1629 39.1265
1 45.0153 44.3667 36.5159
1 46.46 47.0906 36.5101
1 46.5223 48.9608 39.2262
1 44.9544 46.1234 39.1772
1 48.1231 44.4282 36.4572
1 49.7212 47.1104 36.5367
1 49.6336 48.9235 39.2774
1 48.1061 46.0591 39.1662
1 32.3098 49.8063 36.6106
1 35.4607 49.8591 36.5239
1 38.5527 49.864 36.5445
1 41.777 49.8817 36.5788
1 44.9771 49.9175 36.5973
1 48.1785 49.8894 36.549
1 46.696 30.5789 41.8139
1 49.794 30.771 41.9036
1 37.1066 36.1377 41.7786
1 40.1677 35.9944 41.8371
1 41.7988 33.4057 41.7283
1 43.3422 36.093 41.8231
1 44.9906 33.1704 41.8007
1 46.457 36.071 41.8326
1 48.1244 33.3512 41.8075
1 49.6444 36.0602 41.788
1 34.058 41.8065 41.6919
1 35.4618 38.9518 41.7888
1 37.0069 41.5302 41.7109
1 38.566 38.8449 41.754
1 40.2722 41.5892 41.8073
1 41.7711 38.7855 41.745
1 43.3723 41.6097 41.8064
1 44.9683 38.8493 41.8105
1 46.5236 41.6548 41.7199
1 48.1579 38.8046 41.8259
1 49.688 41.5467 41.7771
1 30.825 47.1991 41.6461
1 32.4272 44.4473 41.6947
1 33.8769 47.2627 41.8516
1 35.5116 44.4909 41.7811
1 37.0783 47.2133 41.8448
1 38.6662 44.3551 41.8297
1 40.1616 47.1186 41.8274
1 41.8574 44.3301 41.6729
1 43.3312 47.0609 41.7169
1 44.8645 44.3242 41.7593
1 46.448 46.9961 41.8529
1 48.111 44.341 41.8397
1 49.6789 46.9961 41.9116
1 32.1297 49.9842 41.8271
1 35.4096 49.9973 41.742
1 38.5366 49.9369 41.795
1 41.7643 49.9784 41.8261
1 44.9378 49.8681 41.7895
1 48.0979 49.8097 41.8946
1 43.4749 32.4707 44.4283
1 46.5611 32.3684 44.5013
1 49.704 32.3362 44.5481
1 36.9775 38.0299 44.3424
1 40.1533 37.907 44.43
1 38.567 35.1882 44.4463
1 43.3832 37.9621 44.4034
1 41.8131 35.2099 44.3738
1 46.5242 37.9062 44.4868
1 44.9845 35.0707 44.3177
1 49.7404 37.8543 44.3682
1 48.12 35.1414 44.4166
1 33.8188 43.5514 44.3681
1 36.9708 43.4461 44.4287
1 35.535 40.8232 44.3568
1 40.2869 43.5018 44.4825
1 38.7298 40.708 44.3574
1 43.2721 43.4914 44.4475
1 41.8059 40.6074 44.408
1 46.5108 43.3658 44.3497
1 44.8742 40.7548 44.3366
1 49.606 43.332 44.4591
1 47.9933 40.6447 44.3641
1 30.574 48.8884 44.3538
1 33.6979 49.099 44.3562
1 32.2463 46.1891 44.3847
1 36.8828 49.1012 44.5021
1 35.3981 46.3389 44.4605
1 40.1428 48.9388 44.4665
1 38.5301 46.2099 44.3841
1 43.3517 48.9757 44.4748
1 41.8403 46.266 44.3029
1 46.5209 48.9775 44.4634
1 44.9574 46.1466 44.4973
1 49.6148 48.9018 44.4515
1 48.083 46.0704 44.5278
1 43.4641 32.5088 49.5013
1 46.4948 30.6972 47.089
1 46.6252 32.5597 49.5172
1 49.6242 30.6592 47.2425
1 49.6833 32.5833 49.7092
1 37.0871 36.2706 47.0307
1 36.9687 38.0304 49.6876
1 40.2418 36.1195 47.0109
1 40.1234 37.8993 49.6497
1 38.4444 35.2144 49.6203
1 41.8824 33.3547 46.9496
1 43.397 36.0473 46.9799
1 43.3656 37.888 49.5662
1 41.8023 35.1229 49.6107
1 44.9721 33.3603 46.9872
1 46.458 36.0795 47.001
1 46.5273 38.0494 49.6216
1 45.0333 35.1281 49.574
1 48.1784 33.4229 46.9636
1 49.8004 36.2772 47.0972
1 49.7702 37.9999 49.7212
1 48.1554 35.3746 49.6323
1 33.9295 41.7013 46.9808
1 33.7026 43.4493 49.5977
1 35.6335 38.9567 46.9766
1 37.0103 41.6543 46.99
1 36.9163 43.5563 49.7101
1 35.4979 40.8621 49.6238
1 38.6315 38.8589 46.9602
1 40.2332 41.5878 47.0239
1 40.1066 43.4657 49.5712
1 38.4796 40.7283 49.6579
1 41.802 38.8078 47.139
1 43.4399 41.5983 47.0815
1 43.2885 43.4649 49.6607
1 41.7135 40.805 49.6332
1 44.9497 38.86 47.0124
1 46.624 41.6732 47.1033
1 46.5758 43.4973 49.7354
1 44.937 40.7659 49.6178
1 48.1169 38.8929 47.0278
1 49.877 41.6001 47.0109
1 49.7412 43.4893 49.6995
1 48.0931 40.7846 49.6189
1 30.8662 47.0695 47.0087
1 30.6732 49.1125 49.5326
1 32.3036 44.3113 47.0331
1 33.8089 47.0494 46.947
1 33.7702 48.8696 49.6607
1 32.1888 46.1373 49.5201
1 35.3501 44.3689 47.0313
1 36.8861 47.1587 47.0566
1 36.8877 48.9786 49.7579
1 35.3092 46.1472 49.5897
1 38.5344 44.3999 47.0315
1 40.1019 47.1358 46.9987
1 40.1089 48.9793 49.7318
1 38.575 46.2765 49.6614
1 41.8059 44.3153 47.1271
1 43.3279 47.1179 47.0571
1 43.3936 49.0384 49.6785
1 41.6538 46.3383 49.6003
1 44.9557 44.4312 47.0764
1 46.5341 47.1162 47.0233
1 46.4683 49.0662 49.7072
1 44.8898 46.2035 49.5773
1 48.0953 44.4432 47.1929
1 49.7622 47.0516 47.1314
1 49.7777 49.0537 49.6526
1 48.1785 46.3249 49.6068
1 32.238 49.7826 46.9552
1 35.2713 49.9175 47.1056
1 38.6175 49.8439 47.051
1 41.7834 49.8119 47.0636
1 45.0666 50.0331 47.0267
1 48.2734 49.8469 47.04
1 43.4168 32.654 54.7531
1 52.8427 30.8269 52.0746
1 46.563 32.5306 54.8984
1 55.9764 30.667 52.1674
1 49.7729 32.4554 54.8837
1 36.9875 36.1997 52.3148
1 36.8722 38.1075 54.891
1 40.124 36.1379 52.207
1 40.0817 37.9922 54.8388
1 38.4867 35.4007 54.8318
1 41.8239 33.4512 52.2134
1 43.3571 36.1236 52.1972
1 43.3918 37.9601 54.828
1 41.6924 35.1752 54.7867
1 45.026 33.3436 52.1597
1 46.577 36.2615 52.2001
1 46.5359 38.0307 54.7597
1 45.0418 35.2352 54.682
1 48.1299 33.4823 52.3472
1 49.7462 36.2261 52.2003
1 49.5742 38.0139 54.8031
1 48.2047 35.2617 54.7409
1 33.9151 41.7452 52.3166
1 33.819 43.6437 54.9104
1 35.6189 38.9933 52.1958
1 36.9822 41.6546 52.2794
1 36.9423 43.5737 54.8899
1 35.4119 40.9179 54.8595
1 38.5072 38.8236 52.2044
1 40.1379 41.5874 52.2613
1 40.068 43.5421 54.9078
1 38.508 40.7589 54.9444
1 41.7947 38.8836 52.1423
1 43.2613 41.6318 52.2914
1 43.295 43.593 54.885
1 41.6891 40.8628 54.9299
1 45.0101 38.927 52.1748
1 46.503 41.7231 52.243
1 46.4503 43.5872 54.879
1 44.9231 40.8869 54.8804
1 48.2328 39.0186 52.1619
1 49.6461 41.6054 52.1546
1 49.6708 43.5923 54.8195
1 48.0041 40.7917 54.8787
1 30.7678 47.347 52.0889
1 30.5966 49.0015 54.5515
1 32.3464 44.3658 52.2069
1 33.7769 47.2125 52.1514
1 33.6244 48.9847 54.8327
1 32.1075 46.2869 54.701
1 35.4583 44.4454 52.333
1 36.9128 47.1296 52.3025
1 36.8412 49.0258 54.8628
1 35.2945 46.2758 54.8786
1 38.691 44.4608 52.2993
1 40.2349 47.154 52.2817
1 40.1713 49.1023 54.7969
1 38.5809 46.3095 54.8974
1 41.7465 44.3939 52.1891
1 43.4006 47.1743 52.266
1 43.3127 48.9847 54.8945
1 41.7592 46.2507 54.8586
1 44.947 44.3462 52.1649
1 46.5412 47.1995 52.2469
1 46.589 49.0399 54.9301
1 44.94 46.3638 54.8095
1 48.106 44.4819 52.2095
1 49.754 47.164 52.1933
1 49.64 49.069 54.8969
1 48.1334 46.2882 54.835
1 32.2875 49.9818 52.1878
1 35.3256 49.949 52.1998
1 38.6253 49.8526 52.2976
1 41.9026 49.8999 52.2924
1 44.936 49.9341 52.3007
1 48.0987 49.8323 52.217
1 43.6025 32.4173 60.0228
1 46.5362 30.8559 57.4812
1 46.7111 32.4015 60.1564
1 49.6205 30.8456 57.6443
1 49.7598 32.6394 60.1988
1 36.9631 36.3169 57.5729
1 36.9408 37.9728 60.0963
1 40.0757 36.2166 57.4045
1 40.3176 37.8765 60.0327
1 38.4792 35.2889 60.0375
1 41.8791 33.3888 57.3863
1 43.2508 36.1227 57.3606
1 43.4444 37.8674 59.9788
1 41.7681 35.0645 59.9176
1 45.0232 33.6178 57.4222
1 46.5721 36.2964 57.4271
1 46.4796 38.0436 60.1235
1 44.9552 35.1459 60.0843
1 48.1442 33.4657 57.4178
1 49.7198 36.217 57.4018
1 49.5984 37.9533 60.0565
1 48.1334 35.1826 60.1418
1 33.9429 41.7279 57.4981
1 33.7851 43.4844 60.0345
1 35.4541 39.0408 57.5107
1 37.0529 41.7567 57.4832
1 36.8677 43.5156 60.0328
1 35.5392 40.7663 60.1411
1 38.5256 38.966 57.5477
1 40.2158 41.5653 57.3527
1 40.0769 43.3713 60.1074
1 38.6635 40.6502 60.0674
1 41.8501 38.9582 57.3822
1 43.3366 41.7877 57.4288
1 43.307 43.5531 60.0482
1 41.8999 40.7558 60.0042
1 44.9798 38.96 57.4031
1 46.4656 41.701 57.5443
1 46.4756 43.5481 60.0811
1 44.9929 40.729 60.0134
1 48.0994 38.8814 57.4515
1 49.6538 41.6169 57.4922
1 49.5696 43.5629 60.0289
1 48.0421 40.861 60.1326
1 30.7403 47.3889 57.3368
1 30.6297 49.0432 60.0423
1 32.3542 44.5372 57.3958
1 33.8152 47.2099 57.4196
1 33.803 49.1302 59.9828
1 32.1737 46.353 60.0139
1 35.384 44.4236 57.5556
1 36.8927 47.134 57.3913
1 36.8636 49.0016 59.9876
1 35.2887 46.3067 60.1164
1 38.5802 44.4719 57.5209
1 40.0503 47.2596 57.3003
1 40.0062 48.8829 60.0824
1 38.4401 46.1501 60.0539
1 41.6632 44.4087 57.4013
1 43.2341 47.0907 57.5006
1 43.2418 49.0457 60.0425
1 41.6115 46.1384 60.0962
1 44.9568 44.4215 57.522
1 46.4091 47.2018 57.5066
1 46.3995 49.0104 60.0612
1 44.8538 46.3349 60.1083
1 48.0923 44.5069 57.4813
1 49.6674 47.2079 57.5471
1 49.5914 48.9287 60.1453
1 48.0629 46.3005 60.1373
1 32.1539 50.0698 57.3745
1 35.3246 49.9476 57.4561
1 38.4743 50.0083 57.41
1 41.6792 49.9436 57.5168
1 44.7545 49.985 57.4194
1 47.9778 49.9764 57.5473
1 43.4268 32.5665 65.2573
1 46.3393 30.7211 62.9455
1 46.5041 32.5175 65.2572
1 49.4688 30.9288 62.6498
1 49.6854 32.5122 65.2641
1 37.0896 36.1558 62.6642
1 37.1083 37.9961 65.2254
1 40.2248 36.101 62.6679
1 40.1592 37.9326 65.2684
1 38.6432 35.2108 65.2391
1 41.9628 33.4169 62.5139
1 43.3834 36.1865 62.7104
1 43.3562 38.0902 65.2424
1 41.8142 35.2139 65.2546
1 44.9997 33.5467 62.6291
1 46.5403 36.2755 62.6241
1 46.5592 38.1116 65.3231
1 44.9978 35.2601 65.2792
1 48.0691 33.5478 62.8503
1 49.6988 36.2802 62.8236
1 49.7156 38.1027 65.3201
1 48.1057 35.3049 65.3272
1 34.0234 41.6695 62.5746
1 33.8085 43.4725 65.2218
1 35.5623 39.0006 62.706
1 37.0213 41.7125 62.7275
1 37.0206 43.4381 65.2898
1 35.4242 40.7013 65.257
1 38.5964 38.9236 62.6324
1 40.1448 41.6432 62.6409
1 40.1144 43.4806 65.2684
1 38.5908 40.6358 65.2115
1 41.7194 38.8867 62.6794
1 43.2418 41.7212 62.6602
1 43.2842 43.5302 65.2978
1 41.7104 40.718 65.23
1 44.8971 39.0233 62.6688
1 46.4978 41.7967 62.6847
1 46.5488 43.5811 65.2226
1 44.9648 40.8942 65.3048
1 48.1123 39.0125 62.6706
1 49.6294 41.82 62.6852
1 49.6712 43.591 65.351
1 48.1099 40.7074 65.3335
1 30.685 47.2577 62.6101
1 30.631 49.049 65.157
1 32.2771 44.5903 62.5681
1 33.7525 47.2664 62.6555
1 33.7564 49.0096 65.2848
1 32.1604 46.3089 65.3067
1 35.3976 44.3868 62.7096
1 36.8955 47.0913 62.6869
1 36.9176 49.029 65.2857
1 35.2738 46.2058 65.241
1 38.57 44.4078 62.6071
1 40.0888 47.1231 62.5518
1 40.0159 49.0158 65.3179
1 38.4852 46.234 65.3525
1 41.7294 44.497 62.7344
1 43.1715 47.1634 62.645
1 43.2634 49.1205 65.2999
1 41.6714 46.3617 65.271
1 44.9143 44.5088 62.6251
1 46.436 47.2114 62.7104
1 46.4716 49.19 65.2925
1 44.7555 46.3463 65.2526
1 48.1284 44.4401 62.7059
1 49.6847 47.1324 62.7346
1 49.6527 49.0515 65.2917
1 48.049 46.3082 65.2855
1 32.2053 49.9479 62.5982
1 35.2969 50.0082 62.618
1 38.3965 49.8036 62.6858
1 41.66 50.0322 62.7267
1 44.844 49.8971 62.735
1 48.006 49.9408 62.6904
1 43.5553 32.572 70.3901
1 46.739 30.7305 67.8167
1 46.6289 32.3419 70.5341
1 49.8957 30.7403 67.827
1 49.7903 32.4797 70.3845
1 37.1658 36.2051 67.7451
1 37.0854 37.9121 70.3542
1 40.3135 36.2029 67.8476
1 40.232 38.0052 70.4873
1 38.6866 35.2617 70.4347
1 41.7836 33.4785 67.9563
1 43.4445 36.1318 67.8524
1 43.4784 37.9918 70.4023
1 41.8249 35.3193 70.4369
1 44.9082 33.315 67.8836
1 46.4763 36.1693 67.8524
1 46.5123 38.0045 70.43
1 45.0388 35.1681 70.5236
1 48.0415 33.4507 67.938
1 49.7171 36.0833 67.8531
1 49.7237 37.938 70.4558
1 48.1151 35.2573 70.4847
1 33.8237 41.7486 67.8486
1 33.8025 43.5806 70.4458
1 35.4358 39.0309 67.919
1 36.949 41.6742 67.8309
1 36.8552 43.5704 70.4474
1 35.4306 40.8374 70.3912
1 38.6895 38.9366 67.8029
1 40.0254 41.7333 67.8291
1 40.097 43.4821 70.5103
1 38.6552 40.7175 70.484
1 41.8117 38.8546 67.9048
1 43.2376 41.7037 67.7882
1 43.2017 43.5413 70.4829
1 41.8028 40.7895 70.3548
1 44.9754 38.9845 67.9626
1 46.4703 41.7049 67.7851
1 46.4162 43.5074 70.4175
1 45.0009 40.818 70.4173
1 48.0834 38.9022 67.9249
1 49.6393 41.7319 67.8275
1 49.5877 43.5077 70.475
1 48.1949 40.7267 70.4938
1 30.5891 47.2774 67.9564
1 30.7481 49.0015 70.4726
1 32.2196 44.5525 67.9121
1 33.7219 47.1924 67.9102
1 33.7996 49.0704 70.4666
1 32.263 46.3534 70.4016
1 35.3946 44.3446 67.8125
1 36.8775 47.2244 67.8092
1 36.9256 49.1425 70.4141
1 35.3334 46.2594 70.4268
1 38.6081 44.3899 67.878
1 40.1074 47.1626 67.8077
1 40.0507 49.0737 70.503
1 38.5478 46.3493 70.4712
1 41.6801 44.4971 67.8282
1 43.3001 47.3518 67.8612
1 43.2777 49.1391 70.5215
1 41.6874 46.3126 70.4415
1 44.8555 44.5105 67.8158
1 46.5025 47.2247 67.9074
1 46.357 49.1011 70.5824
1 44.8339 46.254 70.4397
1 48.0215 44.4803 67.9046
1 49.6901 47.2987 67.9022
1 49.5318 49.027 70.5165
1 48.0034 46.2352 70.5488
1 32.1718 49.9399 67.8694
1 35.1959 50.0357 67.8856
1 38.5277 50.0375 67.8549
1 41.7141 49.9756 67.9831
1 44.8445 50.0026 67.8991
1 48.0642 50.0954 67.8502
1 43.3267 32.724 75.5703
1 46.8062 30.8087 73.1733
1 46.5694 32.5394 75.6616
1 49.8208 30.6712 73.0719
1 49.7843 32.7018 75.5922
1 37.0981 36.3328 73.0567
1 36.9959 38.0549 75.5698
1 40.2346 36.2649 73.0983
1 40.1535 38.2129 75.6737
1 38.7116 35.474 75.6958
1 41.8513 33.5355 73.0706
1 43.3727 36.2409 73.0434
1 43.3532 38.0171 75.6028
1 41.7805 35.3473 75.7546
1 44.9996 33.4117 73.1475
1 46.5074 36.2434 73.0704
1 46.5329 38.0523 75.6768
1 44.8933 35.2894 75.7035
1 48.1151 33.4928 73.0329
1 49.7322 36.2024 73.1359
1 49.7185 38.0637 75.7463
1 48.0814 35.2588 75.7493
1 33.7989 41.6875 72.9811
1 33.6897 43.5215 75.6856
1 35.4349 39.0206 72.9683
1 36.9466 41.7939 72.9895
1 36.8005 43.5508 75.6784
1 35.3131 40.8128 75.64
1 38.5144 39.0355 73.0904
1 40.1693 41.697 73.1213
1 40.0653 43.5546 75.6746
1 38.5287 40.8118 75.6581
1 41.7559 38.8739 73.0276
1 43.2467 41.5991 72.8957
1 43.2407 43.6313 75.5825
1 41.762 40.8553 75.7093
1 44.9348 38.9184 73.0441
1 46.5098 41.6968 73.0734
1 46.4362 43.5945 75.6218
1 44.8615 40.7793 75.6993
1 48.2339 38.9862 73.0813
1 49.6694 41.7049 73.0243
1 49.7489 43.5686 75.7246
1 48.0436 40.8779 75.6556
1 30.6551 47.3364 73.1103
1 30.6616 49.0376 75.6435
1 32.2507 44.5674 73.0547
1 33.7451 47.2657 72.9923
1 33.7052 49.2049 75.6883
1 32.2447 46.3901 75.668
1 35.2413 44.4235 73.1372
1 36.9732 47.3376 73.0681
1 36.9186 49.1425 75.7071
1 35.3838 46.4817 75.7157
1 38.44 44.5142 73.1146
1 40.1 47.3527 73.0489
1 40.0152 49.0484 75.7177
1 38.5559 46.2844 75.7135
1 41.5918 44.4171 73.0641
1 43.146 47.2606 73.0471
1 43.3765 49.1385 75.6491
1 41.6993 46.3207 75.6939
1 44.9483 44.4785 73.0849
1 46.5089 47.2162 73.0575
1 46.4736 49.0697 75.7435
1 44.9235 46.3502 75.6724
1 48.0473 44.4057 73.1703
1 49.7081 47.2274 73.0597
1 49.6936 48.9951 75.7875
1 48.0926 46.3971 75.7078
1 32.1283 49.9816 73.1185
1 35.2476 50.0692 73.1356
1 38.5224 50.1008 73.0988
1 41.7256 50.2052 73.0642
1 44.989 50.1256 73.0911
1 48.232 49.9018 73.0983
1 43.3559 32.576 80.9645
1 46.4405 30.809 78.2439
1 46.5257 32.5309 80.7448
1 49.5646 30.9741 78.1161
1 49.51 32.4141 80.9884
1 37.1512 36.2798 78.305
1 36.9787 38.1191 80.8353
1 40.1971 36.3554 78.3083
1 40.0811 38.0982 80.8323
1 38.6226 35.4096 80.8753
1 41.7492 33.5038 78.3
1 43.2964 36.2489 78.2067
1 43.2612 38.1419 80.8599
1 41.7899 35.4148 80.8449
1 44.9374 33.4028 78.2129
1 46.4418 36.221 78.3517
1 46.4104 38.0403 80.8626
1 44.8068 35.2205 80.9365
1 48.0588 33.5143 78.2472
1 49.8089 36.2152 78.3936
1 49.8144 38.0862 80.834
1 48.0324 35.294 80.8592
1 34.0377 41.8016 78.3519
1 33.8168 43.5852 80.9229
1 35.6063 39.0826 78.1821