5538
Atoms. Timestep: 40000
1 43.4125 30.8902 -0.00246464
1 46.5197 30.6454 5.17311
1 46.5142 30.9931 -0.0433021
1 49.5795 30.7735 5.27568
1 49.6561 31.03 0.091928
1 38.3977 37.0531 2.69976
1 38.4498 38.9354 0.113703
1 40.0241 34.3709 2.47255
1 40.1433 36.2944 -0.0390788
1 38.5275 33.6667 -0.194196
1 40.1503 30.9433 -0.122407
1 43.2191 34.289 2.51461
1 43.3241 36.2366 -0.0593953
1 41.7716 33.4825 -0.0385611
1 44.9791 31.7155 2.5366
1 46.4288 34.3662 2.57187
1 46.5325 36.3416 0.0616911
1 44.9645 33.5677 -0.00723993
1 48.1219 31.7272 2.61165
1 49.6361 34.3694 2.6343
1 49.7186 36.274 0.0433162
1 48.0344 33.6351 0.043849
1 35.3104 42.6429 2.682
1 35.3263 44.4966 0.0583484
1 36.9565 39.8233 2.70344
1 38.4055 42.5824 2.67165
1 38.3301 44.4958 0.00679063
1 36.8853 41.6663 0.0700201
1 39.9671 39.8446 2.65739
1 41.5559 42.7069 2.63424
1 41.6789 44.5315 0.00999447
1 40.0219 41.755 0.0584176
1 41.6073 37.1322 2.64122
1 43.1975 39.8827 2.62786
1 43.2318 41.7651 -0.0157228
1 41.5989 39.017 0.0387753
1 44.8235 37.0077 2.52791
1 46.426 39.8734 2.67118
1 46.344 41.7418 0.0244043
1 44.7624 39.0017 -0.00698281
1 48.0334 37.0912 2.62711
1 49.5198 39.9623 2.72908
1 49.6019 41.8607 0.0129044
1 48.0342 39.0761 -0.016513
1 32.1874 48.1014 2.63244
1 32.1753 49.9702 0.174813
1 33.5196 45.2837 2.6496
1 35.2229 48.0791 2.62452
1 35.2107 50.0006 0.055897
1 33.5815 47.2751 0.021309
1 36.7527 45.4495 2.73712
1 38.395 48.1541 2.65807
1 38.4076 49.9298 0.0766959
1 36.7456 47.2994 -0.0117721
1 39.9499 45.4137 2.53367
1 41.6661 48.1759 2.57595
1 41.6952 49.9807 0.0977353
1 40.0229 47.2054 0.0352135
1 43.2661 45.3823 2.66131
1 44.8714 48.1141 2.63043
1 44.9082 49.9647 0.156142
1 43.2365 47.1613 0.0556278
1 44.7657 42.5745 2.74945
1 46.4347 45.5636 2.49813
1 46.5494 47.3391 -0.0254644
1 44.8394 44.5096 0.00605365
1 47.9347 42.6833 2.52125
1 49.6657 45.4318 2.60459
1 49.5972 47.2031 0.0560374
1 47.9585 44.5461 0.0138748
1 33.716 50.8194 2.70952
1 36.8551 50.8759 2.54563
1 39.9773 50.861 2.72945
1 43.2567 50.9363 2.77521
1 46.4061 50.9747 2.73824
1 48.0425 48.2057 2.69626
1 43.5082 32.4183 8.08282
1 47.9829 29.8368 7.84098
1 46.5388 32.5432 7.87617
1 51.1209 29.8414 7.78812
1 49.6706 32.5811 7.84629
1 36.9247 36.2778 5.40573
1 36.8898 38.0119 7.96422
1 39.9467 36.1969 5.21745
1 40.0733 37.9411 7.66221
1 38.5051 35.382 7.93319
1 41.8969 31.5895 2.42378
1 43.3069 35.9843 5.1601
1 43.2771 37.9529 7.69281
1 41.7196 35.1969 7.72866
1 44.8685 33.3738 5.1799
1 46.4323 36.1423 5.2453
1 46.4569 38.0197 7.75549
1 44.7946 35.1345 7.80328
1 48.1397 33.3655 5.2492
1 49.6183 36.2308 5.16188
1 49.6534 38.067 7.8112
1 48.0627 35.2972 7.72709
1 33.8105 41.6744 5.26554
1 33.6186 43.518 7.88807
1 35.3583 38.9764 5.24331
1 36.8545 41.6226 5.20881
1 36.8398 43.4595 7.83403
1 35.3139 40.7429 7.77409
1 38.4269 38.8294 5.28244
1 39.9595 41.5922 5.21124
1 40.011 43.5583 7.82699
1 38.436 40.7673 7.87259
1 41.6498 38.9228 5.18818
1 43.1465 41.7485 5.26476
1 43.175 43.6015 7.83095
1 41.6331 40.7281 7.84396
1 44.8624 38.9872 5.25442
1 46.4395 41.7573 5.23033
1 46.5485 43.6217 7.74373
1 44.8733 40.8638 7.79356
1 48.031 39.0466 5.19527
1 49.5583 41.829 5.2682
1 49.7281 43.5997 7.82691
1 48.0593 40.7439 7.79625
1 30.612 47.2004 5.27049
1 30.603 49.1867 7.74964
1 32.2437 44.4454 5.30786
1 33.6953 47.2731 5.28133
1 33.6994 49.1319 7.86445
1 32.1813 46.3315 7.7837
1 35.2063 44.4684 5.31763
1 36.8063 47.173 5.24635
1 36.8182 49.0231 7.91499
1 35.1907 46.1737 7.99121
1 38.4294 44.3793 5.16295
1 40.0032 47.1196 5.29923
1 40.0267 49.0071 7.90899
1 38.3469 46.2565 7.78243
1 41.5608 44.4716 5.24808
1 43.1854 47.2306 5.12687
1 43.2186 49.0883 7.89532
1 41.6666 46.3381 7.91338
1 44.8333 44.4463 5.34659
1 46.4533 47.2487 5.16291
1 46.3538 49.0004 7.85833
1 44.8111 46.3203 7.80924
1 47.9631 44.5191 5.10231
1 49.6141 47.1628 5.22218
1 49.6424 49.0849 7.86859
1 48.007 46.3262 7.84256
1 32.104 49.9947 5.20732
1 35.3107 49.8877 5.19461
1 38.4878 49.8997 5.28813
1 41.6499 49.9768 5.23589
1 44.8339 49.9647 5.27923
1 48.0411 49.8849 5.30132
1 43.5232 32.4832 13.162
1 46.2258 30.7729 10.3555
1 46.5483 32.5172 13.0799
1 49.466 30.8392 10.3354
1 49.6856 32.5409 12.88
1 37.0253 36.2054 10.5024
1 37.0345 37.8864 13.069
1 40.1871 36.1199 10.3105
1 40.2932 37.9384 13.0774
1 38.7853 35.3258 12.9394
1 41.854 33.5068 10.4918
1 43.3109 36.1906 10.3227
1 43.3328 38.0161 12.9872
1 41.9278 35.2485 13.0956
1 44.964 33.5182 10.5044
1 46.4801 36.2302 10.3717
1 46.5623 38.0402 13.0618
1 44.9458 35.2696 12.9808
1 48.1093 33.5191 10.4326
1 49.5827 36.2622 10.4224
1 49.5895 38.18 12.9248
1 48.1224 35.3772 13.0348
1 33.7837 41.7055 10.5144
1 33.8284 43.4937 13.1108
1 35.545 39.0621 10.607
1 36.985 41.7438 10.4508
1 37.007 43.4513 13.0936
1 35.3447 40.7646 13.1025
1 38.6317 38.8795 10.4334
1 40.144 41.6407 10.5239
1 40.1163 43.5027 13.0156
1 38.5368 40.5755 13.038
1 41.7103 38.8925 10.4298
1 43.2389 41.7461 10.4816
1 43.34 43.5116 12.9904
1 41.6497 40.7931 13.1404
1 44.9108 38.9714 10.3234
1 46.4793 41.823 10.4612
1 46.5008 43.5537 13.0667
1 44.8584 40.6816 12.9707
1 48.1054 39.0735 10.4231
1 49.6615 41.7489 10.3643
1 49.7599 43.6249 12.9433
1 48.1377 40.8446 13.0095
1 30.6566 47.3229 10.3679
1 30.6467 49.169 13.1236
1 32.3288 44.5366 10.5387
1 33.753 47.1798 10.4313
1 33.7327 49.2073 13.0138
1 32.2262 46.4218 13.0069
1 35.3711 44.3766 10.5667
1 36.9378 47.0924 10.4402
1 36.8576 48.9911 13.0751
1 35.3348 46.2254 13.0151
1 38.518 44.3441 10.4125
1 40.1495 47.195 10.4282
1 40.2273 48.9714 13.062
1 38.4576 46.2532 12.9582
1 41.6894 44.505 10.4923
1 43.3962 47.2813 10.5713
1 43.2943 49.0237 13.1364
1 41.6418 46.2665 13.0666
1 44.8963 44.5415 10.374
1 46.4755 47.3 10.4849
1 46.5095 49.0576 13.1327
1 44.8971 46.3433 13.0765
1 48.046 44.5409 10.3529
1 49.7252 47.3209 10.4519
1 49.7747 49.1134 13.0545
1 48.0873 46.3497 13.027
1 32.3185 50.012 10.4232
1 35.3921 49.9764 10.4549
1 38.639 49.9335 10.5541
1 41.7944 50.0123 10.4767
1 44.9323 50.0273 10.4882
1 48.0717 49.9956 10.3728
1 43.3996 32.5856 18.2012
1 43.2893 30.7519 15.6696
1 46.5328 32.3704 18.1345
1 46.3669 30.725 15.5472
1 49.7492 32.4052 18.1769
1 37.171 36.0858 15.5908
1 37.101 37.7639 18.1247
1 40.2114 36.1595 15.7201
1 40.1504 37.9678 18.3267
1 38.7037 35.1861 18.3557
1 41.7723 33.4726 15.6361
1 43.2827 36.236 15.6596
1 43.3953 37.9416 18.2876
1 41.8712 35.2767 18.2491
1 44.822 33.5149 15.6478
1 46.4802 36.151 15.6047
1 46.5696 37.8809 18.3108
1 44.9868 35.1979 18.2401
1 47.9599 33.5396 15.604
1 49.5789 36.2066 15.7539
1 49.6749 37.9248 18.2523
1 48.0544 35.0833 18.3065
1 33.9157 41.6944 15.6191
1 33.7797 43.4957 18.2943
1 35.4193 38.8724 15.6752
1 37.0386 41.5894 15.6135
1 36.8878 43.4787 18.1884
1 35.4757 40.8332 18.1921
1 38.5823 38.8057 15.664
1 40.1695 41.6151 15.5792
1 40.1452 43.3698 18.3373
1 38.5698 40.5975 18.2688
1 41.7315 38.8665 15.766
1 43.3759 41.7811 15.6075
1 43.3151 43.4573 18.3401
1 41.7496 40.8068 18.2754
1 45.0606 38.9862 15.8071
1 46.5314 41.7603 15.6649
1 46.561 43.4236 18.2987
1 44.978 40.7658 18.2401
1 48.0911 38.978 15.6354
1 49.6946 41.6959 15.67
1 49.7195 43.5095 18.2868
1 48.1694 40.8109 18.1544
1 30.7768 47.2461 15.7747
1 30.6146 49.0393 18.3223
1 32.2942 44.5832 15.6566
1 33.7719 47.3299 15.5493
1 33.7925 48.9029 18.2787
1 32.3065 46.2225 18.3381
1 35.3402 44.3843 15.6454
1 36.9166 47.0685 15.5602
1 36.8707 48.8583 18.1878
1 35.359 46.1968 18.1319
1 38.6185 44.3617 15.613
1 40.1007 47.1204 15.694
1 40.0394 48.9602 18.3403
1 38.5528 46.1674 18.2056
1 41.7323 44.3634 15.7203
1 43.3391 47.1965 15.5369
1 43.333 48.9441 18.3168
1 41.6171 46.1781 18.2937
1 44.8989 44.5238 15.5529
1 46.4629 47.2302 15.6181
1 46.4747 49.0915 18.2096
1 44.9193 46.1617 18.3186
1 48.1471 44.4542 15.657
1 49.7456 47.2527 15.6088
1 49.6576 49.0384 18.2262
1 48.0501 46.2873 18.1739
1 32.2089 49.993 15.7188
1 35.4189 49.9195 15.6648
1 38.4952 49.9435 15.599
1 41.8247 49.9107 15.7204
1 44.9782 49.9619 15.6301
1 48.145 50.0611 15.618
1 43.3302 32.3151 23.5988
1 46.6683 30.6342 20.7349
1 46.5029 32.2115 23.4574
1 49.76 30.7294 20.8795
1 49.666 32.4188 23.3579
1 37.0458 36.0903 20.865
1 37.0144 37.852 23.3944
1 40.1841 36.141 20.8778
1 40.1876 37.997 23.4379
1 38.6438 35.2551 23.4692
1 41.8622 33.3189 20.8462
1 43.3268 36.027 20.8212
1 43.2178 37.8499 23.4127
1 41.7041 35.0575 23.469
1 44.9704 33.1966 20.8108
1 46.4912 36.0222 20.8593
1 46.4942 37.8097 23.4376
1 44.8644 35.0564 23.4162
1 48.1209 33.2986 20.8412
1 49.6507 36.1363 20.8618
1 49.6044 37.8958 23.4602
1 48.1259 35.0891 23.3278
1 33.9052 41.6492 20.815
1 33.7756 43.3205 23.3919
1 35.5083 38.9726 20.7511
1 37.0661 41.6083 20.9292
1 36.9878 43.3759 23.5424
1 35.4562 40.5716 23.4997
1 38.7002 38.7616 20.9179
1 40.1179 41.6257 20.9579
1 40.1239 43.3892 23.4386
1 38.5471 40.6557 23.4982
1 41.8297 38.856 20.9115
1 43.3121 41.6511 20.8781
1 43.2267 43.4705 23.5074
1 41.8306 40.6704 23.4578
1 44.9354 38.7901 20.9258
1 46.4407 41.6384 20.9215
1 46.3326 43.3934 23.4766
1 44.8949 40.555 23.4627
1 48.1188 38.8797 20.9019
1 49.6389 41.6124 20.8431
1 49.6845 43.4345 23.4135
1 48.0485 40.6464 23.4419
1 30.8037 47.2043 20.8255
1 30.7234 48.9503 23.3894
1 32.2669 44.3765 20.877
1 33.775 47.0432 20.8504
1 33.793 48.8678 23.4865
1 32.1907 46.12 23.5379
1 35.3227 44.3923 20.9881
1 37.0352 47.0913 20.9032
1 37.0175 48.9084 23.5398
1 35.409 46.1343 23.6021
1 38.4941 44.2803 20.9094
1 40.1743 47.118 20.8855
1 40.0934 49.091 23.4283
1 38.6053 46.1694 23.5565
1 41.7113 44.3962 20.913
1 43.3155 47.0987 20.9556
1 43.3416 48.9812 23.5029
1 41.705 46.1907 23.4224
1 44.8557 44.4227 20.8103
1 46.5386 47.0668 20.9339
1 46.5417 48.9582 23.4443
1 44.8282 46.1784 23.3838
1 48.0326 44.3078 20.8239
1 49.7144 47.196 20.8073
1 49.63 48.8911 23.3619
1 48.122 46.119 23.37
1 32.3206 49.8718 20.8567
1 35.4336 49.7842 20.7647
1 38.4801 49.837 20.8717
1 41.7002 49.868 20.886
1 44.8842 49.8995 20.9751
1 47.9581 49.9373 20.8658
1 43.5222 30.5925 26.1578
1 46.7047 30.7681 26.1331
1 37.01 36.0382 26.1108
1 40.1424 36.0191 26.0681
1 41.7372 33.3034 26.1441
1 43.3742 36.0638 26.0641
1 45.0097 33.3635 26.0261
1 46.4472 36.1041 26.07
1 48.1748 33.4364 25.9488
1 49.6546 36.0725 26.0169
1 33.8315 41.4848 26.1083
1 35.463 38.7728 26.0994
1 36.8741 41.5475 26.1821
1 38.5554 38.6802 26.0208
1 40.1344 41.5454 26.1262
1 41.783 38.8645 26.105
1 43.3366 41.618 25.9874
1 44.887 38.8192 26.0005
1 46.3926 41.6257 26.075
1 48.0539 38.7866 26.0296
1 49.5186 41.6193 25.9418
1 30.6206 47.2403 26.0604
1 32.1888 44.4303 26.2736
1 33.6943 47.1023 26.122
1 35.2597 44.2769 26.1081
1 36.9165 47.0908 26.0655
1 38.5617 44.2877 26.0632
1 40.1393 47.0821 26.0855
1 41.5922 44.3727 25.9421
1 43.2485 47.1003 26.0496
1 44.7315 44.4649 26.1118
1 46.4438 47.0843 26.0196
1 48.0073 44.3336 26.0299
1 49.5468 47.057 26.1086
1 32.1243 49.8906 26.0084
1 35.3464 49.7494 26.0483
1 38.4907 49.9308 26.1249
1 41.7039 49.8716 26.2137
1 44.8664 49.7719 26.1551
1 47.999 49.7303 26.1035
1 43.4458 32.5033 28.6407
1 46.6591 32.5105 28.5983
1 49.7423 32.577 28.5802
1 36.973 37.8925 28.6429
1 40.1396 37.8804 28.6096
1 38.5712 35.1488 28.8047
1 43.284 38.0182 28.6489
1 41.7645 35.1908 28.6061
1 46.4438 37.8837 28.6795
1 44.8383 35.1017 28.6234
1 49.6095 37.9482 28.6402
1 48.0511 35.1656 28.6831
1 33.8115 43.5047 28.7633
1 36.834 43.3688 28.6872
1 35.4029 40.5379 28.808
1 40.0239 43.3626 28.7017
1 38.537 40.5718 28.7683
1 43.1804 43.2841 28.6513
1 41.6448 40.6363 28.7041
1 46.4167 43.478 28.6675
1 44.8601 40.6528 28.5905
1 49.6762 43.4422 28.5655
1 48.0277 40.6347 28.7134
1 30.6936 49.0411 28.5275
1 33.7856 49.0032 28.6834
1 32.2388 46.2931 28.6469
1 36.9192 48.8815 28.6178
1 35.344 46.2125 28.6976
1 40.1158 49.0064 28.7457
1 38.5452 46.0564 28.6589
1 43.3373 48.8431 28.6958
1 41.603 46.0749 28.6988
1 46.3891 48.935 28.7601
1 44.6919 46.2245 28.6512
1 49.6876 49.0175 28.6927
1 47.884 46.1869 28.5874
1 43.3676 32.3173 33.8827
1 46.6542 30.6472 31.0464
1 46.4426 32.392 33.7975
1 49.7832 30.7262 31.1009
1 49.6633 32.4549 33.8731
1 36.9761 36.1267 31.3274
1 36.9557 37.9443 33.9029
1 40.0845 36.0625 31.2521
1 40.0137 37.9491 33.777
1 38.5255 35.3082 33.9934
1 41.9018 33.3433 31.1611
1 43.212 36.0332 31.2295
1 43.187 37.7492 33.9316
1 41.7303 35.0035 33.8224
1 44.9846 33.3673 31.2445
1 46.5157 36.1368 31.2441
1 46.3523 37.8073 33.8931
1 44.8924 35.0696 33.9135
1 48.1075 33.3061 31.2663
1 49.669 36.0017 31.3115
1 49.6046 37.9549 33.989
1 48.0937 35.096 33.8829
1 33.8226 41.6753 31.2711
1 33.7602 43.5903 33.9989
1 35.3682 38.847 31.2749
1 36.9512 41.5668 31.3498
1 36.8596 43.4274 33.9054
1 35.2631 40.7392 33.8364
1 38.4356 38.8104 31.239
1 40.1424 41.556 31.2862
1 40.1175 43.4465 33.832
1 38.4869 40.6422 33.9109
1 41.697 38.7326 31.2937
1 43.2734 41.5283 31.2465
1 43.3089 43.3818 33.9187
1 41.5718 40.6081 33.9098
1 44.7584 38.7738 31.2725
1 46.3547 41.5527 31.293
1 46.5124 43.4127 33.8712
1 44.7968 40.5731 33.8832
1 47.9853 38.8661 31.3796
1 49.5605 41.6427 31.2431
1 49.5959 43.4908 33.995
1 48.0506 40.6491 33.9504
1 30.6839 47.2944 31.1206
1 30.7648 49.0269 33.8844
1 32.2323 44.401 31.1595
1 33.7489 47.0155 31.3416
1 33.9515 48.9197 33.8238
1 32.0254 46.2763 33.8023
1 35.3474 44.3752 31.2337
1 37.059 47.1338 31.2473
1 36.977 48.9451 33.8464
1 35.4572 46.1691 33.831
1 38.4197 44.3383 31.3394
1 40.0492 47.115 31.2737
1 40.2291 48.9753 33.9196
1 38.5452 46.2064 34.0033
1 41.6572 44.2846 31.3058
1 43.1859 47.1259 31.3599
1 43.2513 49.061 33.9408
1 41.7217 46.1664 33.9523
1 44.7924 44.3447 31.2846
1 46.5498 47.035 31.344
1 46.5538 48.9484 33.9212
1 44.8572 46.2394 33.9811
1 48.1242 44.3271 31.2738
1 49.6425 47.2316 31.2686
1 49.6224 48.9479 34.0171
1 48.094 46.1706 33.9643
1 32.3125 49.8854 31.2576
1 35.4282 49.7427 31.1223
1 38.5242 49.8923 31.1924
1 41.7192 49.9454 31.2364
1 44.9132 49.8783 31.2911
1 48.1317 49.9143 31.4016
1 43.3965 32.4282 39.115
1 43.3986 30.5712 36.5558
1 46.4802 32.3718 39.2602
1 46.4193 30.714 36.5172
1 49.6564 32.4336 39.1968
1 36.9712 36.2564 36.5846
1 37.0472 37.9673 39.1208
1 40.1475 36.1228 36.3675
1 40.0224 37.8591 39.1103
1 38.6095 35.3144 39.0181
1 41.7863 33.3767 36.4046
1 43.2982 35.9609 36.5267
1 43.2286 37.7829 39.023
1 41.7903 35.134 39.1136
1 44.8552 33.2859 36.4524
1 46.4964 36.052 36.4523
1 46.3281 37.9149 39.1542
1 44.9202 35.0316 39.0933
1 47.931 33.4193 36.5525
1 49.6245 36.037 36.5599
1 49.5663 37.9643 39.0875
1 48.0273 35.1888 39.25
1 33.734 41.7082 36.4814
1 33.6811 43.4543 39.1619
1 35.3452 39.0653 36.5831
1 36.7991 41.6704 36.4374
1 36.78 43.4373 39.0425
1 35.2857 40.6941 39.0519
1 38.4842 38.8364 36.4274
1 40.114 41.5524 36.535
1 40.1294 43.3569 39.1578
1 38.3728 40.7778 39.1418
1 41.5647 38.8039 36.3676
1 43.3336 41.5379 36.4993
1 43.3226 43.3789 39.2033
1 41.5915 40.5027 39.1398
1 44.8199 38.7761 36.5379
1 46.5701 41.6247 36.4957
1 46.4994 43.4086 39.2407
1 44.7541 40.7076 39.0341
1 48.1214 38.7973 36.5113
1 49.6025 41.7248 36.5472
1 49.7278 43.4896 39.1433
1 48.041 40.7258 39.062
1 30.6293 47.2884 36.5377
1 30.7784 48.9979 39.1073
1 32.1767 44.5276 36.4659
1 33.7133 47.0868 36.4869
1 33.725 48.9253 39.074
1 32.2403 46.2793 39.0868
1 35.3269 44.4171 36.5168
1 36.9705 47.1137 36.4901
1 36.9889 48.8041 39.1014
1 35.3267 46.1247 39.034
1 38.4668 44.3231 36.516
1 40.0921 47.1289 36.5979
1 39.9919 48.9236 39.1664
1 38.5089 46.0847 39.1181
1 41.6632 44.4022 36.5399
1 43.2419 47.143 36.5575
1 43.3418 49.0208 39.2558
1 41.6846 46.2008 39.115
1 44.9085 44.34 36.6037
1 46.4859 47.0534 36.487
1 46.4191 48.8561 39.2517
1 44.8008 46.2075 39.2119
1 48.007 44.3939 36.4886
1 49.5877 47.137 36.6315
1 49.6001 48.9334 39.1974
1 48.0546 46.1887 39.2255
1 32.3278 49.8625 36.4799
1 35.4657 49.8505 36.4703
1 38.5901 49.9231 36.4743
1 41.694 49.9072 36.6541
1 44.8535 49.91 36.5908
1 47.9103 49.8542 36.5931
1 46.6818 30.5713 41.8587
1 49.6934 30.701 41.6555
1 36.9848 36.0548 41.7474
1 40.0893 36.1331 41.7377
1 41.8023 33.2883 41.6373
1 43.3278 36.0446 41.6909
1 44.9665 33.3362 41.7612
1 46.4254 36.1581 41.7695
1 48.0864 33.2844 41.7072
1 49.6908 36.1203 41.7341
1 33.8353 41.6291 41.6316
1 35.4987 38.9753 41.6892
1 36.8555 41.6385 41.6256
1 38.5011 38.9537 41.7114
1 40.1057 41.5289 41.7244
1 41.5828 38.696 41.749
1 43.3158 41.5287 41.6716
1 44.7281 38.8582 41.6853
1 46.4356 41.5824 41.6626
1 48.0291 38.8581 41.7142
1 49.6556 41.5001 41.7128
1 30.6816 47.0762 41.7565
1 32.2642 44.4065 41.7731
1 33.714 47.0983 41.6869
1 35.2903 44.372 41.7242
1 36.85 47.0368 41.7118
1 38.3665 44.2688 41.6923
1 40.1042 47.1029 41.8166
1 41.6169 44.3053 41.6826
1 43.2821 46.9793 41.8233
1 44.8224 44.2815 41.7517
1 46.4063 47.0546 41.895
1 48.1515 44.3714 41.8698
1 49.6479 47.1361 41.7897
1 32.1727 49.8162 41.7642
1 35.2692 49.8557 41.5975
1 38.4548 49.8491 41.7493
1 41.6525 49.8078 41.7751
1 44.8845 49.9224 41.8939
1 48.0789 49.8524 41.8131
1 43.2296 32.4763 44.345
1 46.484 32.3713 44.3671
1 49.6853 32.2783 44.226
1 36.9514 38.0189 44.2715
1 40.0399 38.005 44.387
1 38.5962 35.3546 44.385
1 43.1659 37.9311 44.286
1 41.7132 35.2127 44.315
1 46.4419 37.9575 44.3398
1 44.9005 35.186 44.3677
1 49.7254 37.9316 44.3295
1 48.0035 35.121 44.2262
1 33.5657 43.35 44.3561
1 36.7758 43.3739 44.3862
1 35.2615 40.6766 44.3474
1 39.9249 43.5062 44.2737
1 38.4134 40.8094 44.2068
1 43.2179 43.4293 44.2999
1 41.7196 40.7841 44.2768
1 46.3722 43.4392 44.3488
1 44.9361 40.6941 44.3205
1 49.8015 43.4344 44.4399
1 48.1508 40.7441 44.3129
1 30.69 48.9483 44.48
1 33.7418 48.941 44.3495
1 32.1323 46.2679 44.4342
1 36.8775 48.9212 44.2731
1 35.235 46.1379 44.4017
1 40.0211 48.872 44.3755
1 38.4221 46.2117 44.3444
1 43.2111 48.9475 44.3829
1 41.5669 46.1758 44.3998
1 46.551 48.8988 44.4566
1 44.8153 46.1597 44.4876
1 49.7177 48.8715 44.3496
1 48.1447 46.2089 44.3847
1 43.3753 32.4438 49.7177
1 46.7313 30.6041 46.8493
1 46.5291 32.5051 49.541
1 49.8692 30.8331 46.9082
1 49.7332 32.6347 49.4141
1 37.155 36.3179 46.9014
1 36.9056 38.0017 49.5542
1 40.2575 36.1852 46.9231
1 40.1667 37.9306 49.6058
1 38.6694 35.3727 49.3939
1 41.8496 33.4537 46.937
1 43.4047 36.0635 46.986
1 43.2875 37.8947 49.5262
1 41.7657 35.1244 49.6317
1 44.9037 33.2881 46.9273
1 46.51 36.0237 46.9032
1 46.5146 37.9925 49.6727
1 44.9967 35.2505 49.4961
1 48.0799 33.4229 46.8879
1 49.7395 36.1112 46.8836
1 49.7757 38.1303 49.63
1 48.1124 35.2679 49.5786
1 33.6517 41.6631 47.0133
1 33.7047 43.5327 49.6226
1 35.3661 39.0158 46.8964
1 36.8913 41.6285 46.9258
1 36.8031 43.4583 49.5479
1 35.3167 40.6723 49.478
1 38.5377 38.9691 46.9356
1 40.1088 41.6145 46.9681
1 40.1174 43.4896 49.6112
1 38.4834 40.7093 49.6708
1 41.7442 38.8156 46.9216
1 43.2707 41.6245 46.9954
1 43.3284 43.4449 49.7061
1 41.6858 40.7173 49.5106
1 44.8841 38.9075 46.8918
1 46.4147 41.7227 46.9855
1 46.5526 43.4693 49.5835
1 44.8499 40.667 49.6839
1 48.0488 38.9686 46.9891
1 49.6815 41.7085 46.9839
1 49.7297 43.5232 49.6623
1 48.0956 40.7698 49.5325
1 30.7085 47.1148 47.1465
1 30.7167 48.8784 49.7239
1 32.124 44.3006 47.0407
1 33.7597 47.1974 47.0713
1 33.766 49.0132 49.6323
1 32.1117 46.2325 49.658
1 35.2233 44.4124 46.9736
1 36.824 47.1113 47.0014
1 36.8764 48.8655 49.4846
1 35.2601 46.2131 49.5554
1 38.432 44.347 46.9507
1 40.0139 47.0468 46.9087
1 40.0243 48.8494 49.6175
1 38.4917 46.1916 49.6342
1 41.5936 44.3894 46.9088
1 43.0773 47.1665 47.0496
1 43.1787 48.8794 49.6546
1 41.6234 46.0991 49.6309
1 44.8081 44.4225 47.0013
1 46.4267 47.0668 46.9718
1 46.492 48.8787 49.5788
1 44.9288 46.2551 49.6646
1 48.0199 44.2642 46.9469
1 49.7072 47.0467 46.9051
1 49.6537 49.0329 49.6292
1 48.0745 46.2422 49.5871
1 32.2702 49.8453 47.0047
1 35.3142 49.9057 46.9362
1 38.4532 49.8833 47.0001
1 41.6727 49.8388 47.0218
1 44.9073 49.8379 46.9919
1 48.154 49.7646 46.9421
1 43.6104 32.599 54.9741
1 52.6832 30.8043 52.0739
1 46.7877 32.5804 54.9109
1 55.8774 30.7435 52.1113
1 49.8485 32.2566 54.798
1 37.2066 36.3115 52.1547
1 37.0709 38.0832 54.765
1 40.1869 36.2221 52.1368
1 40.2385 38.0832 54.8482
1 38.7927 35.483 54.8729
1 41.7745 33.3941 52.3387
1 43.4278 36.11 52.2745
1 43.4365 38.0042 54.8568
1 41.8187 35.3154 54.8382
1 44.9807 33.409 52.2489
1 46.6367 36.0802 52.162
1 46.5962 37.9223 54.7478
1 45.0524 35.2567 54.929
1 48.2144 33.4291 52.2361
1 49.7645 36.2527 52.0773
1 49.6636 37.9262 54.7836
1 48.2078 35.2279 54.8031
1 33.9393 41.5892 52.1236
1 33.896 43.3895 54.9097
1 35.499 38.9889 52.1321
1 37.005 41.5487 52.2807
1 36.9659 43.4769 54.8335
1 35.3605 40.748 54.8542
1 38.6595 38.9532 52.2091
1 40.1842 41.6818 52.2565
1 40.0651 43.4552 54.7903
1 38.484 40.7785 54.8007
1 41.7389 38.9166 52.1211
1 43.3427 41.7081 52.3255
1 43.1934 43.5242 54.945
1 41.691 40.7602 54.8054
1 44.9066 38.8584 52.3018
1 46.4887 41.7424 52.2384
1 46.5499 43.533 54.921
1 44.8816 40.7794 54.7904
1 48.0821 39.0238 52.1919
1 49.7176 41.7473 52.1845
1 49.6827 43.5076 54.838
1 48.0703 40.8083 54.7874
1 30.6193 47.2171 52.3905
1 30.6496 48.8577 54.9385
1 32.1789 44.3782 52.3005
1 33.7834 47.0693 52.1706
1 33.7991 48.9083 54.8418
1 32.2401 46.1617 54.8772
1 35.3174 44.2811 52.1379
1 36.9687 47.1363 52.1772
1 36.8893 48.9382 54.683
1 35.3862 46.2214 54.8025
1 38.3889 44.4506 52.2
1 40.1268 47.1231 52.2324
1 40.1929 48.956 54.8499
1 38.557 46.206 54.8107
1 41.6333 44.4176 52.2443
1 43.2549 47.0926 52.3089
1 43.2728 49.0197 54.925
1 41.6779 46.2397 54.8596
1 44.8567 44.4785 52.3724
1 46.4906 47.1969 52.2752
1 46.5277 49.0306 54.7396
1 44.9116 46.3261 54.8082
1 48.0455 44.4679 52.2541
1 49.63 47.2288 52.2203
1 49.7232 49.1053 54.8883
1 48.1885 46.3108 54.8804
1 32.2729 49.6807 52.2297
1 35.3814 49.8126 52.1199
1 38.5812 49.9008 52.224
1 41.6683 49.913 52.3225
1 44.8226 49.8625 52.2267
1 47.985 49.9315 52.2014
1 43.406 32.7151 60.0663
1 46.449 30.8459 57.47
1 46.6092 32.6073 60.044
1 49.567 30.8303 57.6164
1 49.661 32.6351 60.0868
1 37.35 36.1801 57.578
1 37.1641 37.9932 60.1632
1 40.3445 36.2758 57.4609
1 40.3281 38.0301 60.115
1 38.8515 35.3316 60.0291
1 41.7666 33.5247 57.3918
1 43.4158 36.198 57.4208
1 43.4706 38.013 60.0539
1 41.8932 35.3105 60.0756
1 45.0134 33.5418 57.4801
1 46.5294 36.257 57.3402
1 46.6247 38.0451 60.0815
1 45.0896 35.2768 60.0747
1 48.1248 33.4185 57.4783
1 49.7599 36.1551 57.3771
1 49.7315 37.9959 60.0777
1 48.1997 35.2939 59.9428
1 33.9276 41.6199 57.4748
1 33.866 43.473 60.1815
1 35.5687 38.9034 57.496
1 36.9974 41.6477 57.514
1 37.0023 43.4721 60.0398
1 35.3383 40.6953 60.0691
1 38.655 38.9929 57.4806
1 40.195 41.6838 57.5019
1 40.1866 43.4675 60.0849
1 38.5779 40.6748 60.1541
1 41.8152 38.9826 57.4941
1 43.3396 41.6395 57.4345
1 43.2806 43.4874 60.1538
1 41.6703 40.714 60.1663
1 44.9649 39.0171 57.4042
1 46.4883 41.634 57.4851
1 46.5483 43.5527 60.012
1 45.0076 40.8736 60.1207
1 48.1757 38.9259 57.4913
1 49.6803 41.6502 57.4493
1 49.7505 43.5131 60.1396
1 48.2332 40.8744 60.1791
1 30.5416 47.0907 57.5663
1 30.5212 48.9477 60.0213
1 32.4005 44.4085 57.5719
1 33.7421 47.0429 57.4451
1 33.6578 48.81 60.0557
1 32.2022 46.1662 60.1191
1 35.4467 44.2503 57.4998
1 37.0104 47.063 57.4872
1 37.0135 48.926 60.0795
1 35.3548 46.2125 60.1638
1 38.6862 44.3485 57.3885
1 40.1931 47.1312 57.4929
1 40.1243 48.9567 60.081
1 38.5402 46.1218 60.0715
1 41.8306 44.4 57.4555
1 43.2743 47.1148 57.4791
1 43.3429 49.0341 60.1486
1 41.7418 46.2846 60.1917
1 44.9175 44.4203 57.5058
1 46.5382 47.1433 57.4313
1 46.469 49.0637 60.1186
1 44.949 46.365 60.0684
1 48.1191 44.4154 57.5028
1 49.7179 47.3228 57.491
1 49.6652 49.0873 60.017
1 48.0836 46.2804 60.0962
1 32.1555 49.729 57.4751
1 35.4266 49.7253 57.4404
1 38.5883 49.9634 57.4048
1 41.8622 49.9452 57.5003
1 44.9512 49.9579 57.5161
1 48.0294 49.9612 57.3313
1 43.4822 32.6649 65.3072
1 46.5725 30.8005 62.715
1 46.5713 32.685 65.3663
1 49.8225 30.8583 62.6566
1 49.7562 32.5365 65.3386
1 37.1834 36.094 62.6808
1 37.1643 38.0162 65.2777
1 40.2431 36.213 62.7188
1 40.3288 38.104 65.2584
1 38.7324 35.3324 65.1846
1 41.8188 33.5462 62.695
1 43.4604 36.2352 62.7125
1 43.4247 38.0227 65.3299
1 41.8805 35.3726 65.423
1 44.9756 33.4309 62.7209
1 46.6028 36.1211 62.7097
1 46.602 38.0835 65.361
1 44.9953 35.2252 65.3769
1 48.0804 33.5097 62.5894
1 49.782 36.2503 62.5867
1 49.7504 38.1354 65.4265
1 48.1454 35.3245 65.3917
1 33.8827 41.6163 62.8423
1 33.9043 43.5969 65.4009
1 35.6866 39.0245 62.8536
1 37.0905 41.7818 62.7403
1 37.0774 43.4886 65.3419
1 35.5996 40.9035 65.4598
1 38.7607 38.9393 62.6774
1 40.1745 41.695 62.7697
1 40.2288 43.5995 65.4226
1 38.6746 40.8189 65.3333
1 41.9069 38.882 62.7131
1 43.377 41.7062 62.8724
1 43.4195 43.5839 65.3768
1 41.8683 40.7984 65.425
1 45.0675 38.9727 62.6348
1 46.6521 41.8172 62.8351
1 46.5562 43.5656 65.3466
1 44.9659 40.81 65.3016
1 48.1901 38.9817 62.7507
1 49.7999 41.7606 62.8896
1 49.6937 43.548 65.4354
1 48.1302 40.7989 65.4066
1 30.6342 47.2283 62.6754
1 30.7906 48.9749 65.3124
1 32.4288 44.5757 62.8783
1 33.7689 47.2334 62.6094
1 33.8154 48.9813 65.3641
1 32.2709 46.3235 65.3821
1 35.3849 44.397 62.7566
1 36.9863 47.1221 62.7358
1 36.9311 49.0689 65.3691
1 35.4167 46.3155 65.3453
1 38.6421 44.4187 62.7467
1 40.202 47.1684 62.7728
1 40.141 49.0253 65.4899
1 38.5541 46.3304 65.386
1 41.8823 44.471 62.8493
1 43.345 47.1936 62.8051
1 43.3549 49.2026 65.366
1 41.7019 46.4638 65.4646
1 45.0153 44.4667 62.6975
1 46.5259 47.2916 62.7944
1 46.4934 49.0175 65.3536
1 44.8452 46.3603 65.3461
1 48.1871 44.4852 62.7069
1 49.7447 47.2661 62.7655
1 49.6383 49.0315 65.3412
1 48.1849 46.3149 65.3183
1 32.2211 49.7956 62.6301
1 35.5027 49.8625 62.6967
1 38.6233 49.9469 62.7559
1 41.757 49.9738 62.708
1 44.9223 49.9867 62.7311
1 48.0235 50.0174 62.7411
1 43.4304 32.6107 70.6788
1 46.3423 31.0482 68.0106
1 46.6628 32.555 70.5478
1 49.5713 30.9593 68.0731
1 49.614 32.6946 70.6978
1 37.19 36.1791 67.9142
1 37.1289 38.0274 70.639
1 40.1756 36.1505 67.9155
1 40.1268 37.9995 70.6589
1 38.547 35.2528 70.7401
1 41.8121 33.4485 68.0045
1 43.3023 36.2332 67.9392
1 43.3617 38.0031 70.5715
1 41.7836 35.199 70.5609
1 44.8354 33.6373 68.0227
1 46.4515 36.3407 67.9293
1 46.5388 38.016 70.7574
1 44.9802 35.32 70.5634
1 48.0348 33.6605 67.9418
1 49.6364 36.3328 68.0097
1 49.6799 38.1482 70.6114
1 48.1415 35.4115 70.5466
1 33.9196 41.794 67.9525
1 33.8977 43.577 70.7041
1 35.6345 39.069 67.9669
1 37.0981 41.7535 67.9609
1 36.975 43.6026 70.5548
1 35.3471 40.8406 70.5974
1 38.6885 38.9266 67.8885
1 40.2602 41.7106 67.9803
1 40.1411 43.6616 70.5337
1 38.5076 40.8012 70.4836
1 41.7984 38.9585 67.9674
1 43.4856 41.6888 67.9215
1 43.3888 43.5495 70.5447
1 41.7251 40.8275 70.7047
1 44.9389 38.9779 67.9842
1 46.5738 41.7723 68.0365
1 46.508 43.5997 70.547
1 44.9419 40.768 70.5752
1 48.1512 39.0427 68.0709
1 49.6896 41.7588 67.9906
1 49.7272 43.629 70.5816
1 48.0366 40.8428 70.6544
1 30.7379 47.2472 67.9804
1 30.651 48.9138 70.6648
1 32.3415 44.5494 68.1199
1 33.7145 47.2089 67.966
1 33.7219 49.0063 70.55
1 32.2056 46.2412 70.6688
1 35.3956 44.5463 68.0665
1 36.9362 47.1271 67.9018
1 36.9692 49.0358 70.5167
1 35.353 46.2776 70.6465
1 38.602 44.4936 68.0336
1 40.0877 47.219 68.1013
1 40.1262 49.1083 70.6739
1 38.5552 46.2975 70.7018
1 41.8214 44.4627 68.0108
1 43.2636 47.3127 68.024
1 43.2392 49.1704 70.6373
1 41.7145 46.3089 70.6216
1 44.9069 44.5446 67.9964
1 46.5307 47.3102 67.8676
1 46.4233 49.1757 70.5916
1 44.8727 46.416 70.5603
1 48.1735 44.51 67.9889
1 49.6231 47.3616 67.8962
1 49.7271 49.1882 70.5697
1 48.0988 46.2814 70.5091
1 32.1572 49.9656 68.0073
1 35.3221 49.9232 67.8419
1 38.5214 49.9197 68.0779
1 41.7171 50.0196 68.1459
1 44.7824 50.0869 67.9849
1 48.0925 50.0509 67.9972
1 43.5413 32.6372 75.7818
1 46.5301 30.9393 73.2025
1 46.6094 32.6472 75.8511
1 49.5913 30.8544 73.1886
1 49.7372 32.7736 75.7188
1 37.0273 36.3728 73.2986
1 36.9435 38.1813 75.8425
1 40.1343 36.3098 73.2661
1 40.1646 38.1234 75.7523
1 38.6345 35.4938 75.7834
1 41.7823 33.505 73.231
1 43.352 36.2015 73.1407
1 43.4394 38.1568 75.8196
1 41.8339 35.3576 75.7214
1 44.9408 33.5685 73.1334
1 46.4951 36.1881 73.1282
1 46.5698 38.1634 75.8306
1 45.0212 35.3441 75.7119
1 48.0506 33.604 73.1834
1 49.7812 36.3311 73.1799
1 49.7682 38.1929 75.7901
1 48.1783 35.4379 75.7014
1 33.9529 41.7785 73.1979
1 33.724 43.5508 75.8693
1 35.4114 38.9236 73.2489
1 36.9448 41.7342 73.1985
1 36.9808 43.5906 75.876
1 35.3755 40.9696 75.7957
1 38.5832 39.045 73.2543
1 40.1518 41.783 73.2041
1 40.1087 43.6178 75.8314
1 38.5372 40.9547 75.7456
1 41.7934 38.9833 73.2896
1 43.3686 41.7425 73.2496
1 43.3594 43.654 75.7975
1 41.7567 40.9066 75.7921
1 44.95 38.9139 73.2398
1 46.5069 41.8288 73.2457
1 46.4732 43.5276 75.8852
1 45.0533 40.8178 75.91
1 48.1407 39.042 73.2701
1 49.7316 41.8504 73.209
1 49.7211 43.6866 75.7726
1 48.2294 40.9453 75.7953
1 30.6759 47.3079 73.3735
1 30.8467 49.1346 75.805
1 32.2358 44.4911 73.3192
1 33.9092 47.1386 73.3207
1 33.8014 49.0138 75.7461
1 32.1635 46.2453 75.8409
1 35.467 44.5193 73.2017
1 36.9784 47.169 73.3114
1 36.9504 49.0388 75.9782
1 35.3457 46.3114 75.8292
1 38.6285 44.5076 73.1447
1 40.233 47.273 73.3016
1 40.0885 49.063 75.8485
1 38.4413 46.3227 75.8894
1 41.7767 44.4863 73.214
1 43.4124 47.2141 73.238
1 43.2521 49.031 75.8306
1 41.6859 46.2731 75.9088
1 44.9296 44.4774 73.1553
1 46.4953 47.2128 73.2069
1 46.4813 49.2503 75.7499
1 44.8223 46.3915 75.8402
1 48.0442 44.5974 73.2301
1 49.6623 47.3131 73.1196
1 49.8039 49.0475 75.7756
1 48.072 46.3692 75.7545
1 32.339 49.8658 73.2225
1 35.3574 49.9617 73.1691
1 38.5013 50.0576 73.259
1 41.6558 49.9228 73.2612
1 44.8365 49.9895 73.277
1 48.0818 49.9803 73.1436
1 43.3757 32.775 81.0859
1 46.4882 31.0579 78.5486
1 46.4359 32.8894 80.9401
1 49.6965 31.0959 78.2358
1 49.6772 32.5941 80.9182
1 37.1862 36.3524 78.3592
1 37.1073 38.1197 80.9929
1 40.2673 36.324 78.356
1 40.1806 38.1558 80.8657
1 38.7586 35.351 81.0221
1 41.779 33.6446 78.3333
1 43.4518 36.3391 78.3426
1 43.4678 38.2923 80.8986
1 41.895 35.5089 80.921
1 44.9626 33.7217 78.3899
1 46.5454 36.3943 78.3572
1 46.5145 38.1871 81.0738
1 44.9803 35.4422 81.026
1 48.2266 33.7434 78.3206
1 49.6324 36.442 78.2951
1 49.7974 38.0554 80.9632
1 48.2572 35.3828 80.8504
1 33.8526 41.8367 78.5724
1 33.7885 43.6483 80.9977
1 35.5604 39.1101 78.5153