5538
Atoms. Timestep: 50000
1 43.292 30.8815 -0.222866
1 46.6078 30.8365 5.06755
1 46.4064 30.6595 -0.211843
1 49.69 30.8317 5.14146
1 49.7385 30.7483 0.00576179
1 38.6537 37.1819 2.6219
1 38.5713 39.0659 -0.156782
1 40.2481 34.4262 2.54865
1 40.2211 36.2861 0.0601933
1 38.8857 33.5238 -0.182163
1 40.2677 30.852 -0.17185
1 43.3702 34.3748 2.46651
1 43.4137 36.2306 0.0199917
1 41.8995 33.6502 -0.194227
1 44.9708 31.6561 2.50127
1 46.5059 34.3049 2.57356
1 46.5464 36.1599 -0.02954
1 44.9999 33.4442 -0.0443912
1 48.0429 31.6731 2.42099
1 49.727 34.3865 2.57274
1 49.713 36.1619 0.0490035
1 48.1366 33.3646 -0.112118
1 35.4106 42.5157 2.60942
1 35.344 44.4413 -0.00399422
1 36.9821 39.7608 2.47732
1 38.5251 42.5755 2.58491
1 38.5148 44.5155 -0.0879347
1 37.003 41.7732 -0.165265
1 40.1649 39.8477 2.6288
1 41.8007 42.6291 2.6935
1 41.7577 44.4849 0.0981404
1 40.1863 41.8339 0.0562236
1 41.8397 37.1495 2.66172
1 43.3555 39.9549 2.6532
1 43.3874 41.7172 0.0130294
1 41.7497 39.0139 0.015541
1 44.9945 37.2616 2.57727
1 46.5489 39.9701 2.62238
1 46.5827 41.6826 -0.0430754
1 44.9106 39.0186 0.0398086
1 48.1657 37.2232 2.60504
1 49.8524 39.9036 2.66926
1 49.8327 41.6989 -0.0969443
1 48.1302 38.972 0.057117
1 32.297 48.0009 2.47617
1 32.2704 49.8319 -0.00090653
1 33.7863 45.2148 2.52405
1 35.4897 48.0727 2.69288
1 35.3539 50.0572 0.0744501
1 33.8551 47.1993 -0.0213324
1 36.8628 45.3623 2.59023
1 38.5767 48.0428 2.79877
1 38.4161 49.879 0.223857
1 36.888 47.1773 0.0130302
1 40.169 45.327 2.68307
1 41.7244 48.0986 2.55953
1 41.6719 49.8505 -0.0114384
1 40.1188 47.1183 -0.0616953
1 43.3637 45.3909 2.65876
1 44.8978 48.0891 2.64111
1 44.8507 49.9292 0.0870849
1 43.3545 47.2211 -0.0350926
1 44.9565 42.6655 2.54917
1 46.5404 45.347 2.66298
1 46.5529 47.0764 0.0617817
1 44.9422 44.4591 -0.0408364
1 48.1819 42.6175 2.52869
1 49.683 45.4622 2.54567
1 49.71 47.1902 -0.0285987
1 48.1753 44.4706 0.0501031
1 33.739 50.8028 2.64681
1 36.8487 50.8833 2.7279
1 40.1085 50.7777 2.54667
1 43.3203 50.9412 2.66095
1 46.4684 50.8225 2.65011
1 48.1399 48.1646 2.57705
1 43.3786 32.5773 7.92594
1 48.0759 29.9047 7.77273
1 46.4965 32.5836 7.66207
1 51.1703 29.7808 7.65583
1 49.753 32.4875 7.65373
1 37.0528 36.2154 5.25227
1 37.0075 38.1196 7.83156
1 40.1138 36.3734 5.20982
1 40.2201 38.1153 7.72892
1 38.5862 35.5036 7.8491
1 41.7981 31.7272 2.33405
1 43.2586 36.2257 5.227
1 43.2498 38.0065 7.86674
1 41.6684 35.2189 7.83434
1 44.7732 33.5159 5.12229
1 46.4851 36.1993 5.11444
1 46.4781 38.0411 7.83869
1 44.9732 35.269 7.81735
1 48.1054 33.4637 5.18767
1 49.6853 36.2609 5.19528
1 49.5237 38.1065 7.70479
1 48.0379 35.34 7.72379
1 33.9174 41.6483 5.27533
1 33.7 43.305 7.87728
1 35.5538 38.9717 5.21927
1 37.0609 41.6513 5.20724
1 36.9164 43.3937 7.80492
1 35.3564 40.7425 7.83914
1 38.5876 39.0251 5.26693
1 40.1228 41.7601 5.18927
1 40.1595 43.4355 7.82733
1 38.5728 40.7995 7.85841
1 41.7567 39.1058 5.12139
1 43.4283 41.7254 5.25379
1 43.3302 43.5097 7.93236
1 41.7145 40.8029 7.81202
1 44.9872 38.9379 5.27794
1 46.47 41.7541 5.22322
1 46.4207 43.5946 7.85677
1 44.7779 40.7533 7.92322
1 48.0895 39.1142 5.19664
1 49.7157 41.7004 5.22069
1 49.5818 43.41 7.8201
1 47.9363 40.7543 7.90546
1 30.6962 47.1015 5.04269
1 30.6448 48.8262 7.72962
1 32.3771 44.3145 5.30777
1 33.8232 47.1969 5.18274
1 33.7003 48.8631 7.86295
1 32.0608 46.0947 7.8377
1 35.4494 44.3954 5.25835
1 36.9946 47.1274 5.29255
1 36.9577 48.9827 7.77737
1 35.2851 46.1836 7.84662
1 38.5362 44.4006 5.25042
1 40.1925 47.1348 5.26416
1 40.0561 49.0112 7.80848
1 38.5236 46.1961 7.81899
1 41.7688 44.3777 5.33446
1 43.3449 47.2679 5.29568
1 43.2497 49.0758 7.80664
1 41.7818 46.2185 7.93085
1 44.9717 44.4556 5.22029
1 46.5249 47.1766 5.2419
1 46.5531 48.9647 7.85218
1 44.9689 46.2839 7.80119
1 48.1014 44.461 5.19782
1 49.6804 47.1245 5.21447
1 49.6555 48.9969 7.81827
1 48.1089 46.1983 7.85669
1 32.1379 49.8182 5.25524
1 35.3749 49.9017 5.27124
1 38.5478 49.9918 5.20124
1 41.5866 50.0144 5.19632
1 44.9251 50.0241 5.29074
1 48.0289 49.8952 5.21293
1 43.4913 32.51 13.0616
1 46.5569 30.769 10.2867
1 46.6431 32.391 12.8371
1 49.7091 30.9087 10.2569
1 49.8027 32.5071 12.9404
1 37.253 36.2645 10.3928
1 36.9805 37.9081 12.9724
1 40.2896 36.3529 10.3901
1 40.1792 38.0123 13.0661
1 38.725 35.2705 12.9587
1 41.803 33.5737 10.4468
1 43.4252 36.2155 10.3391
1 43.3641 37.8925 13.0514
1 41.8278 35.3295 13.0485
1 44.9972 33.539 10.3762
1 46.5112 36.138 10.3742
1 46.4864 37.9027 13.083
1 45.0046 35.1887 13.086
1 48.1418 33.4761 10.2804
1 49.7818 36.1442 10.3658
1 49.7458 37.9431 13.0217
1 48.1859 35.2448 12.9021
1 33.8781 41.5653 10.4031
1 33.7696 43.4549 13.0077
1 35.5699 38.9869 10.3619
1 36.9681 41.7169 10.5022
1 36.9201 43.6714 12.9957
1 35.441 40.8163 12.9962
1 38.6974 39.0772 10.4294
1 40.2192 41.6695 10.4296
1 40.1903 43.4452 13.061
1 38.555 40.9172 13.0787
1 41.8623 38.9369 10.3895
1 43.2624 41.7262 10.5663
1 43.409 43.5313 13.1231
1 41.8524 40.648 13.1672
1 44.9011 38.936 10.4803
1 46.4811 41.7391 10.3932
1 46.4591 43.5525 13.1613
1 44.9441 40.7484 13.0709
1 48.0879 38.9396 10.5627
1 49.7095 41.6963 10.5018
1 49.7267 43.5367 13.1272
1 47.9535 40.7231 13.1836
1 30.684 47.2047 10.4029
1 30.67 49.0026 13.0517
1 32.2305 44.3522 10.3787
1 33.6734 47.1073 10.4276
1 33.7678 49.0358 13.1312
1 32.2114 46.3504 12.981
1 35.3417 44.3881 10.475
1 36.9595 47.0553 10.4167
1 37.0504 49.0502 12.9759
1 35.3067 46.3157 13.062
1 38.5994 44.4509 10.4151
1 40.2033 47.2183 10.4155
1 40.1735 49.1547 13.0031
1 38.6431 46.2975 12.993
1 41.752 44.4012 10.5378
1 43.3781 47.2311 10.4657
1 43.2905 49.0272 13.0822
1 41.7762 46.2563 13.0367
1 44.899 44.399 10.5081
1 46.5357 47.1485 10.5492
1 46.5958 49.1254 13.1483
1 44.832 46.2926 13.1036
1 48.0975 44.3797 10.4743
1 49.7132 47.2369 10.4852
1 49.8013 49.1143 13.1359
1 48.1509 46.3172 13.0586
1 32.1062 49.8961 10.3967
1 35.2406 49.862 10.4225
1 38.5834 49.9709 10.3162
1 41.6879 49.9976 10.4076
1 44.8734 49.9257 10.5822
1 48.0284 49.9505 10.5503
1 43.3988 32.3164 18.2836
1 43.3782 30.6209 15.627
1 46.5304 32.3658 18.3725
1 46.6193 30.8454 15.5928
1 49.749 32.4383 18.2531
1 37.0048 36.2873 15.7528
1 36.8431 38.007 18.3072
1 40.1783 36.2017 15.6703
1 40.115 37.914 18.3538
1 38.5518 35.3631 18.3208
1 41.9046 33.5258 15.6096
1 43.3642 36.1871 15.779
1 43.2739 37.8609 18.3379
1 41.8354 35.1292 18.2887
1 44.974 33.3555 15.7611
1 46.4107 36.1217 15.7218
1 46.478 37.892 18.29
1 44.947 35.0259 18.3216
1 48.0986 33.4541 15.4594
1 49.772 36.1766 15.7688
1 49.7087 38.0217 18.3618
1 48.1019 35.1475 18.2529
1 33.967 41.7679 15.6723
1 33.8197 43.453 18.2507
1 35.573 39.1026 15.5755
1 37.0199 41.7467 15.5697
1 36.8722 43.3951 18.2892
1 35.3797 40.8754 18.2166
1 38.628 38.9125 15.549
1 40.2071 41.6521 15.7318
1 40.0286 43.4446 18.3812
1 38.5334 40.7915 18.2239
1 41.8259 38.8641 15.762
1 43.3797 41.7195 15.7764
1 43.3596 43.5893 18.3221
1 41.6792 40.704 18.4442
1 45.0587 38.929 15.6263
1 46.5588 41.7239 15.7346
1 46.5323 43.5434 18.3348
1 44.8559 40.5458 18.2687
1 48.1351 38.8445 15.732
1 49.6316 41.6372 15.6943
1 49.6503 43.3491 18.3348
1 48.0725 40.6801 18.2847
1 30.7482 47.2074 15.6508
1 30.5554 49.0119 18.3395
1 32.3817 44.4933 15.5698
1 33.824 47.1463 15.7815
1 33.6783 49.0755 18.3011
1 32.1186 46.3555 18.2651
1 35.4273 44.4085 15.6335
1 36.9951 47.2039 15.5467
1 36.8827 49.001 18.1307
1 35.4247 46.1845 18.3344
1 38.5984 44.4298 15.5555
1 40.1672 47.2519 15.656
1 40.0629 49.039 18.2812
1 38.5402 46.2575 18.2957
1 41.6631 44.3499 15.7195
1 43.344 47.2271 15.6391
1 43.2513 48.9816 18.2706
1 41.6723 46.2175 18.3355
1 44.983 44.5202 15.7335
1 46.4835 47.2324 15.5867
1 46.443 48.931 18.2018
1 44.8431 46.2459 18.2915
1 48.1732 44.4477 15.7576
1 49.6603 47.1686 15.6941
1 49.6227 48.9839 18.334
1 48.0742 46.1997 18.304
1 32.1129 49.8706 15.6964
1 35.2941 50.0388 15.694
1 38.6058 50.0201 15.6216
1 41.7463 49.9587 15.7968
1 44.8161 49.8973 15.633
1 48.1303 49.9423 15.778
1 43.2546 32.4685 23.5804
1 46.6706 30.7926 21.0985
1 46.6056 32.476 23.6285
1 49.7225 30.8089 20.956
1 49.7305 32.4804 23.4507
1 36.9775 36.2 20.9651
1 36.9614 37.9432 23.4826
1 40.2204 36.1964 20.9034
1 40.0334 37.8531 23.4895
1 38.4779 35.2235 23.5636
1 41.7625 33.4464 20.8934
1 43.3785 36.1075 20.9064
1 43.3483 37.9131 23.5414
1 41.6925 35.2372 23.4295
1 44.9024 33.2705 21.0012
1 46.549 36.0024 20.8689
1 46.545 37.8459 23.5066
1 44.8965 35.206 23.479
1 48.0668 33.4218 20.8544
1 49.6903 36.1934 20.8141
1 49.7599 37.815 23.5896
1 48.1223 35.1367 23.5021
1 33.9188 41.7751 20.8347
1 33.6995 43.396 23.5155
1 35.4031 38.9622 20.9096
1 36.9406 41.7157 20.8851
1 36.842 43.4223 23.6242
1 35.2913 40.7125 23.4401
1 38.4544 38.9079 20.8633
1 40.1073 41.6719 20.8782
1 40.1315 43.4131 23.4391
1 38.4562 40.6564 23.4642
1 41.6243 38.9039 20.9734
1 43.3356 41.5824 20.9067
1 43.3975 43.481 23.5386
1 41.8692 40.7473 23.5742
1 44.8655 38.7674 20.9267
1 46.4887 41.5443 20.955
1 46.4978 43.4258 23.477
1 44.9242 40.7599 23.659
1 48.1339 38.8885 20.9471
1 49.7055 41.6753 20.9635
1 49.6371 43.4002 23.5698
1 48.0841 40.6152 23.529
1 30.6426 47.1839 20.9587
1 30.5895 48.8549 23.5535
1 32.2595 44.5101 20.8922
1 33.7309 47.1743 20.8603
1 33.6447 48.8733 23.4751
1 32.1602 46.2463 23.5223
1 35.3675 44.454 20.8904
1 36.9096 47.1444 20.8909
1 36.8986 48.9978 23.3505
1 35.2659 46.1693 23.5842
1 38.4877 44.3605 20.9462
1 40.1336 47.0259 20.8966
1 40.1152 49.0694 23.5087
1 38.3893 46.0884 23.5126
1 41.78 44.398 20.9542
1 43.3908 47.1438 20.8923
1 43.403 48.9587 23.4083
1 41.7247 46.2938 23.4779
1 44.8783 44.3847 20.9319
1 46.5033 47.0925 20.999
1 46.6016 48.9422 23.647
1 45.0091 46.1999 23.532
1 48.0974 44.325 21.0039
1 49.6639 47.0353 21.0466
1 49.773 48.945 23.5841
1 48.1521 46.1642 23.5589
1 32.0268 49.9034 20.9099
1 35.2766 49.8789 20.9046
1 38.5294 49.9671 20.9147
1 41.6133 49.8278 20.8903
1 44.8599 49.8725 20.9274
1 48.0757 49.838 20.8835
1 43.5581 30.7263 26.0932
1 46.635 30.7216 26.0796
1 37.035 36.1973 26.0261
1 40.1057 36.1966 26.0091
1 41.6836 33.394 26.0333
1 43.2453 36.1459 26.091
1 44.93 33.457 26.1283
1 46.5567 36.0798 26.1159
1 48.0991 33.404 26.2183
1 49.6595 36.1173 26.189
1 33.846 41.5849 26.0303
1 35.4534 38.923 26.0356
1 36.9747 41.6001 26.0708
1 38.5823 38.9354 26.101
1 40.1957 41.5977 26.0911
1 41.6818 38.8316 25.9695
1 43.2599 41.647 26.1466
1 44.8558 38.8833 26.151
1 46.5611 41.6029 26.1648
1 47.9685 38.8149 26.0409
1 49.6613 41.5118 26.1789
1 30.72 47.1516 26.2025
1 32.1678 44.4023 26.124
1 33.7648 47.0035 26.218
1 35.2535 44.2281 26.1513
1 36.879 47.0603 26.0957
1 38.4817 44.2578 26.1301
1 40.064 47.0742 26.1055
1 41.6858 44.3774 26.1077
1 43.2781 47.0762 26.1375
1 44.9935 44.2332 26.1479
1 46.5361 47.0828 26.1879
1 48.1242 44.4036 26.1035
1 49.6453 47.0794 26.0803
1 32.135 49.7466 26.2137
1 35.291 49.7589 26.0257
1 38.4802 49.8721 26.0818
1 41.663 49.8802 26.1401
1 44.767 49.8255 26.1377
1 48.0579 49.8699 26.1795
1 43.3038 32.4847 28.7731
1 46.5817 32.4653 28.7046
1 49.6903 32.4267 28.6729
1 36.8534 37.8403 28.5915
1 40.0098 37.9778 28.6749
1 38.554 35.1262 28.5604
1 43.1386 37.9433 28.6765
1 41.847 35.1611 28.7061
1 46.3968 37.963 28.684
1 44.9451 35.1223 28.7041
1 49.6103 37.8941 28.7245
1 48.0589 35.141 28.7413
1 33.7291 43.4309 28.6527
1 36.8786 43.3383 28.696
1 35.3554 40.6258 28.5899
1 40.0853 43.3708 28.6812
1 38.4918 40.6824 28.6063
1 43.2768 43.4032 28.7095
1 41.7283 40.6976 28.8466
1 46.5817 43.4188 28.718
1 44.8239 40.751 28.8349
1 49.6692 43.4093 28.7912
1 48.079 40.6572 28.7559
1 30.7 48.9288 28.8176
1 33.7551 48.7894 28.7678
1 32.1602 46.087 28.8064
1 36.8947 48.8117 28.6977
1 35.2846 46.041 28.7609
1 40.0742 48.9248 28.7614
1 38.4436 46.1173 28.6799
1 43.1483 48.9389 28.8049
1 41.6726 46.242 28.7471
1 46.4595 48.9847 28.6634
1 44.8323 46.1332 28.7018
1 49.6846 48.9254 28.7421
1 48.0289 46.1809 28.6371
1 43.0503 32.4496 33.9549
1 46.4659 30.8208 31.3039
1 46.4225 32.3831 34.0356
1 49.6394 30.6294 31.2069
1 49.533 32.3199 33.9649
1 36.8216 36.1595 31.2136
1 36.9015 37.8606 33.823
1 39.8978 36.088 31.2997
1 40.0313 37.8392 33.9095
1 38.4721 35.1393 33.9163
1 41.6808 33.464 31.3307
1 43.2212 36.1073 31.3238
1 43.2896 37.8675 33.9094
1 41.6623 35.2389 33.8837
1 44.8549 33.3339 31.3947
1 46.2534 36.1436 31.2384
1 46.4842 37.9428 33.8119
1 44.8285 35.1608 33.9913
1 48.0406 33.428 31.3385
1 49.5368 36.0964 31.2854
1 49.6591 37.9594 34.0266
1 47.9015 35.2012 33.9184
1 33.9501 41.7822 31.2973
1 33.6942 43.3502 33.889
1 35.4312 39.0053 31.2837
1 37.0051 41.5811 31.262
1 36.8154 43.3608 33.977
1 35.3171 40.6392 33.8418
1 38.49 38.7336 31.286
1 39.9792 41.6141 31.2787
1 40.1465 43.3321 33.8895
1 38.447 40.6479 33.9292
1 41.5453 38.742 31.3344
1 43.182 41.6483 31.4859
1 43.245 43.5033 33.9933
1 41.6125 40.5675 34.0322
1 44.8398 38.9215 31.3653
1 46.4263 41.5571 31.4019
1 46.461 43.3828 34.0452
1 44.7259 40.6897 34.0699
1 48.0196 38.7309 31.2911
1 49.6044 41.6175 31.5341
1 49.6073 43.4432 34.0005
1 48.0482 40.6224 33.9964
1 30.627 47.1692 31.4068
1 30.6854 48.9444 33.9815
1 32.2667 44.4661 31.3903
1 33.7662 47.1301 31.3595
1 33.7507 48.8594 33.9855
1 32.1074 46.1781 33.9781
1 35.3979 44.3817 31.3161
1 36.9258 47.0034 31.3406
1 36.8873 48.8951 33.8419
1 35.2918 46.0846 33.9824
1 38.5688 44.3819 31.302
1 40.0665 47.1182 31.2754
1 40.0293 48.8747 33.9263
1 38.4753 46.0583 33.9037
1 41.6535 44.3693 31.2521
1 43.2868 47.1015 31.2973
1 43.1909 48.9725 34.0401
1 41.6469 46.2051 33.8509
1 44.8126 44.2833 31.3706
1 46.4203 47.1152 31.2412
1 46.385 48.9816 33.8938
1 44.9017 46.2113 33.9787
1 47.9558 44.3847 31.3699
1 49.555 46.9656 31.3348
1 49.5903 49.0127 33.8397
1 48.0317 46.1911 33.8658
1 32.2105 49.7753 31.4341
1 35.2816 49.7965 31.3198
1 38.4485 49.767 31.4262
1 41.7691 49.8299 31.3657
1 44.8708 49.9087 31.3599
1 48.0571 49.9072 31.311
1 43.2574 32.5171 39.1724
1 43.5293 30.7018 36.682
1 46.3446 32.3967 39.2628
1 46.5432 30.7082 36.5796
1 49.6207 32.4242 39.2504
1 37.0104 36.0818 36.4992
1 36.8344 37.8784 39.0646
1 40.1454 36.0604 36.5274
1 39.9517 37.8049 39.1017
1 38.4664 35.2208 39.2298
1 41.7822 33.3234 36.6203
1 43.3046 35.9403 36.576
1 43.3348 37.8862 39.1251
1 41.7027 35.1679 39.1298
1 44.8977 33.3517 36.6605
1 46.4177 35.9261 36.5194
1 46.4507 37.8814 39.1208
1 44.8781 35.1739 39.2135
1 48.0677 33.3424 36.5425
1 49.6387 36.0214 36.4514
1 49.7198 37.8522 39.1464
1 48.059 35.1549 39.1133
1 33.828 41.5683 36.3638
1 33.774 43.4819 39.1151
1 35.4648 38.8687 36.4206
1 36.9201 41.4834 36.398
1 36.8564 43.3094 39.061
1 35.2712 40.5832 39.1084
1 38.5078 38.8196 36.4659
1 39.9832 41.5014 36.5241
1 39.9704 43.3258 39.2191
1 38.4013 40.5508 39.1188
1 41.7355 38.7787 36.5282
1 43.2099 41.5291 36.5741
1 43.1576 43.3661 39.1425
1 41.593 40.5992 39.1769
1 44.8783 38.7859 36.588
1 46.4417 41.5313 36.613
1 46.4992 43.466 39.1652
1 44.8094 40.76 39.2259
1 47.9807 38.7407 36.5376
1 49.6409 41.479 36.5001
1 49.6544 43.3046 39.1378
1 48.0246 40.5902 39.1606
1 30.7371 47.2283 36.6021
1 30.7072 48.9313 39.0974
1 32.1544 44.368 36.4404
1 33.801 47.043 36.5215
1 33.7152 48.9538 39.1742
1 32.3496 46.2156 39.1126
1 35.3662 44.3161 36.5107
1 36.9414 47.0535 36.533
1 36.8479 49.0561 39.1995
1 35.4358 46.1524 39.166
1 38.5406 44.2944 36.4766
1 40.0472 47.0816 36.5828
1 40.0445 48.9148 39.1679
1 38.5129 46.1404 39.0496
1 41.6174 44.3054 36.5472
1 43.2425 47.0366 36.5766
1 43.3208 48.882 39.1966
1 41.6724 46.1558 39.1033
1 44.9013 44.3374 36.6449
1 46.5047 47.0788 36.4224
1 46.4428 48.8581 39.0503
1 44.807 46.1937 39.1412
1 48.1116 44.2443 36.5939
1 49.6353 47.0514 36.5046
1 49.5956 48.9307 39.0457
1 48.0248 46.1028 39.1331
1 32.1786 49.8627 36.5446
1 35.3284 49.9019 36.5425
1 38.4366 49.8354 36.5174
1 41.6069 49.8372 36.5789
1 44.7911 49.8696 36.5217
1 47.9813 49.8837 36.496
1 46.3684 30.8575 42.0457
1 49.5032 30.6822 41.7907
1 36.787 36.1388 41.7667
1 39.9946 36.1083 41.7646
1 41.8043 33.4945 41.7808
1 43.2924 36.0722 41.7299
1 44.8811 33.3889 41.9001
1 46.496 36.0372 41.9021
1 47.9332 33.3524 41.7829
1 49.5383 35.9324 41.7665
1 33.8058 41.7854 41.8253
1 35.3015 38.9068 41.7378
1 36.907 41.6209 41.7736
1 38.3504 38.7633 41.71
1 39.9596 41.564 41.8042
1 41.693 38.8255 41.775
1 43.1614 41.6518 41.7216
1 44.7813 38.8219 41.8064
1 46.4005 41.6096 41.7681
1 48.014 38.7888 41.7728
1 49.5747 41.5305 41.7313
1 30.8637 47.2835 41.6964
1 32.3774 44.5941 41.8178
1 33.884 47.018 41.737
1 35.3644 44.3489 41.7146
1 37.0148 47.1436 41.6645
1 38.5401 44.4459 41.6668
1 40.1839 47.1265 41.7254
1 41.6037 44.3376 41.7418
1 43.2981 47.0212 41.7613
1 44.7552 44.3304 41.7203
1 46.4387 47.1875 41.8128
1 48.0717 44.3686 41.7232
1 49.4812 47.1935 41.8219
1 32.374 49.8841 41.7619
1 35.4108 49.8542 41.8457
1 38.5531 49.93 41.8249
1 41.7743 49.7673 41.7288
1 45.0003 49.8786 41.7614
1 48.0562 50.0007 41.7063
1 43.3539 32.4798 44.4938
1 46.3832 32.6706 44.5227
1 49.3924 32.5251 44.4281
1 36.8074 38.0769 44.3448
1 40.076 37.9921 44.2734
1 38.3058 35.4396 44.4054
1 43.2732 37.8431 44.3907
1 41.7004 35.2399 44.3324
1 46.3987 37.9291 44.337
1 44.8501 35.2278 44.3915
1 49.6091 38.063 44.3781
1 48.0042 35.3297 44.4764
1 33.7429 43.514 44.4663
1 36.896 43.5359 44.3419
1 35.3442 40.7991 44.4636
1 40.077 43.4574 44.3512
1 38.4681 40.713 44.3543
1 43.293 43.3435 44.4542
1 41.6971 40.7053 44.4536
1 46.4147 43.566 44.2448
1 44.8304 40.7116 44.372
1 49.593 43.4494 44.3558
1 47.9651 40.6783 44.2666
1 30.6206 49.0132 44.4227
1 33.775 48.9244 44.4614
1 32.2411 46.3667 44.4236
1 36.9012 48.8758 44.3832
1 35.3469 46.1283 44.3799
1 40.0916 48.8843 44.4232
1 38.4441 46.1793 44.3365
1 43.3496 49.0669 44.3091
1 41.7022 46.1794 44.3545
1 46.5438 48.9803 44.4233
1 44.8872 46.2232 44.3883
1 49.5191 49.0222 44.3864
1 48.0054 46.2591 44.4654
1 43.5496 32.5979 49.6338
1 46.6926 30.9218 46.9704
1 46.749 32.6765 49.7645
1 49.6528 30.8952 46.9802
1 49.8056 32.48 49.6554
1 37.0167 36.3938 47.0778
1 37.0254 38.0519 49.6423
1 40.1297 36.3157 46.9814
1 40.1641 37.9889 49.6394
1 38.6259 35.3832 49.5601
1 41.8947 33.4985 47.1597
1 43.3208 36.1351 46.998
1 43.4275 37.988 49.5416
1 41.9125 35.2621 49.6194
1 44.96 33.4893 47.0069
1 46.5128 36.2212 47.0416
1 46.588 38.1494 49.5869
1 45.0688 35.2862 49.6532
1 48.1943 33.6334 47.0319
1 49.6957 36.3583 46.9334
1 49.7369 38.1191 49.6362
1 48.2465 35.3604 49.604
1 33.8309 41.7081 47.1012
1 33.7532 43.4717 49.6537
1 35.538 38.9779 47.0597
1 36.9473 41.7688 47.0005
1 36.8876 43.4186 49.652
1 35.3628 40.7262 49.6568
1 38.5612 39.0885 46.9219
1 40.1478 41.6515 46.9033
1 40.0181 43.5762 49.6838
1 38.5686 40.7219 49.6293
1 41.7674 38.9257 47.064
1 43.2677 41.6627 47.11
1 43.2487 43.5274 49.5696
1 41.7053 40.7424 49.6182
1 44.8839 38.9588 47.0144
1 46.4388 41.754 46.7478
1 46.4987 43.4569 49.5872
1 44.8932 40.7718 49.6087
1 48.0099 39.0535 46.9184
1 49.6992 41.7108 47.0266
1 49.7658 43.5282 49.5985
1 48.1432 40.9331 49.6058
1 30.6904 47.4487 47.1017
1 30.8288 49.1652 49.7146
1 32.2506 44.5971 47.0063
1 33.7312 47.2144 47.2114
1 33.7459 49.0639 49.7362
1 32.1602 46.31 49.7419
1 35.3518 44.4432 47.0406
1 36.9217 47.2143 47.0042
1 36.8998 49.0995 49.6811
1 35.3795 46.3113 49.6667
1 38.5126 44.3409 46.9562
1 40.0266 47.1047 47.0012
1 40.1232 48.9788 49.6235
1 38.506 46.2297 49.5866
1 41.6497 44.38 46.92
1 43.2285 47.1152 47.1357
1 43.2819 48.9685 49.6673
1 41.7239 46.1643 49.6311
1 44.858 44.4279 46.9603
1 46.519 47.166 47.0857
1 46.5098 49.0452 49.6116
1 44.8105 46.2335 49.6391
1 48.1441 44.4001 47.0397
1 49.6215 47.2512 46.9582
1 49.606 49.0303 49.5822
1 48.0566 46.3209 49.6019
1 32.2768 50.0341 47.0871
1 35.3967 49.9731 47.0509
1 38.5486 49.859 47.0336
1 41.8687 49.8491 46.9542
1 44.9227 49.8147 46.965
1 48.0503 49.9887 47.0275
1 43.5501 32.6754 54.8688
1 53.1492 30.8821 52.1884
1 46.5457 32.7258 54.8769
1 56.2048 30.8511 52.4399
1 49.7757 32.4282 55.0179
1 37.0236 36.2423 52.2584
1 37.016 38.0822 54.9001
1 40.1808 36.1239 52.2094
1 40.2061 37.9641 54.9141
1 38.5887 35.3883 54.8675
1 41.9735 33.5756 52.3441
1 43.4306 36.1581 52.2487
1 43.313 38.0766 54.7964
1 41.7913 35.3334 54.7793
1 45.1232 33.5068 52.326
1 46.6778 36.2584 52.2905
1 46.4682 37.9956 54.9208
1 44.9046 35.3363 54.8907
1 48.2172 33.5471 52.4205
1 49.8234 36.2355 52.3334
1 49.7241 37.9663 54.8813
1 48.1325 35.3245 54.945
1 33.9231 41.6779 52.2981
1 33.776 43.5956 54.9605
1 35.4996 38.9835 52.2234
1 36.9764 41.6278 52.2959
1 36.8584 43.3917 54.8798
1 35.412 40.6029 54.833
1 38.5197 38.9497 52.2701
1 40.1157 41.4967 52.1423
1 40.109 43.4736 54.9073
1 38.5699 40.8431 54.9179
1 41.7267 38.8137 52.2637
1 43.2845 41.6683 52.1948
1 43.3735 43.5764 54.8781
1 41.7195 40.8244 54.7233
1 45.0207 38.954 52.1523
1 46.4697 41.6819 52.2922
1 46.4833 43.545 54.8146
1 44.9579 40.778 54.8934
1 48.2896 39.0542 52.1762
1 49.6856 41.6684 52.2446
1 49.6438 43.499 54.7292
1 48.0395 40.7777 54.8578
1 30.7173 47.2935 52.2812
1 30.6416 49.0843 55.0669
1 32.438 44.4347 52.3032
1 33.7781 47.1559 52.3507
1 33.8327 48.9133 54.9791
1 32.04 46.3008 54.9587
1 35.4607 44.365 52.2402
1 37.0796 47.2461 52.2104
1 37.0464 48.9756 54.9981
1 35.3201 46.2024 54.9163
1 38.5693 44.378 52.306
1 40.2191 47.1214 52.2933
1 40.1362 48.9546 54.9457
1 38.5351 46.155 54.8574
1 41.7309 44.3302 52.3357
1 43.3422 47.1837 52.2115
1 43.3046 49.0426 54.9113
1 41.7574 46.2769 54.8627
1 44.9648 44.4501 52.1586
1 46.5785 47.2416 52.1349
1 46.5539 49.101 54.8892
1 44.9716 46.3613 54.8861
1 48.1023 44.4062 52.19
1 49.7653 47.2243 52.2002
1 49.8306 49.2353 54.7645
1 48.0503 46.3824 54.779
1 32.3436 49.8704 52.3889
1 35.5315 49.9577 52.3755
1 38.6933 49.9038 52.2997
1 41.7256 49.9306 52.3699
1 44.957 49.8381 52.1774
1 48.1806 49.9896 52.2058
1 43.4797 32.675 60.0404
1 46.2994 30.9769 57.5441
1 46.6153 32.5632 60.1524
1 49.4153 30.8225 57.6332
1 49.6445 32.5997 60.1714
1 37.0788 36.1572 57.5756
1 37.0448 37.9462 60.1828
1 40.2855 36.0769 57.5295
1 40.1067 38.0277 60.0125
1 38.6841 35.3458 60.1298
1 42.0216 33.4459 57.4444
1 43.2876 36.239 57.3617
1 43.2656 38.1042 60.0488
1 41.7639 35.2442 60.1168
1 45.0459 33.6342 57.4194
1 46.504 36.256 57.5301
1 46.5943 38.0593 60.0397
1 44.9398 35.2997 60.063
1 48.0978 33.6248 57.4585
1 49.6289 36.1377 57.5937
1 49.7376 38.1709 60.1402
1 48.1356 35.2961 60.122
1 33.9847 41.6256 57.4767
1 33.7218 43.4851 60.1191
1 35.5932 38.8488 57.6084
1 37.0423 41.6398 57.4721
1 36.8839 43.456 60.1942
1 35.3687 40.7861 60.136
1 38.6484 38.8764 57.5092
1 40.1488 41.6967 57.5365
1 40.1865 43.4809 60.1321
1 38.5171 40.7267 60.1716
1 41.7902 38.9337 57.3583
1 43.3326 41.6096 57.3563
1 43.2742 43.5654 60.0099
1 41.6509 40.7927 59.9984
1 44.9379 38.8925 57.5461
1 46.49 41.6578 57.4876
1 46.511 43.5486 60.1473
1 44.9104 40.8326 59.994
1 48.1243 38.9314 57.4813
1 49.6119 41.8172 57.3859
1 49.6452 43.6729 60.0068
1 48.1801 40.8809 60.0292
1 30.7297 47.3927 57.5627
1 30.6224 49.1661 60.098
1 32.256 44.4951 57.5167
1 33.7571 47.1952 57.5327
1 33.693 49.0161 60.1898
1 32.0871 46.3196 60.0745
1 35.3561 44.4148 57.5332
1 36.961 47.1681 57.6336
1 36.9198 49.0711 60.2683
1 35.2938 46.2532 60.1018
1 38.5773 44.4289 57.5536
1 40.0618 47.2458 57.5919
1 40.091 49.1258 60.1712
1 38.5646 46.3321 60.1854
1 41.6537 44.5768 57.603
1 43.3142 47.277 57.54
1 43.4146 49.1103 60.087
1 41.7381 46.3973 60.1508
1 44.9018 44.4127 57.4719
1 46.5244 47.2416 57.4861
1 46.5353 48.9765 60.0851
1 44.8838 46.2772 60.0993
1 48.0639 44.5332 57.4685
1 49.7121 47.1464 57.4022
1 49.7783 49.0713 60.0749
1 48.1014 46.341 60.0936
1 32.3475 49.961 57.5454
1 35.3485 49.9738 57.6551
1 38.5616 49.8682 57.6053
1 41.723 49.9044 57.5217
1 45.0307 50.0635 57.5341
1 48.1488 49.9303 57.4399
1 43.3276 32.5593 65.4289
1 46.6521 30.8766 62.7788
1 46.5434 32.5697 65.3714
1 49.7099 30.8947 62.7897
1 49.6529 32.5651 65.4026
1 37.0734 36.1144 62.8155
1 37.0114 38.0121 65.369
1 40.1756 36.1621 62.7968
1 40.1474 38.0783 65.3194
1 38.7185 35.3272 65.4507
1 41.906 33.5768 62.8129
1 43.3851 36.2153 62.6393
1 43.3916 38.0574 65.3037
1 41.7711 35.2933 65.3614
1 45.0058 33.4991 62.7678
1 46.3904 36.2535 62.707
1 46.4401 38.0883 65.2083
1 44.8663 35.2039 65.2914
1 48.133 33.4987 62.756
1 49.603 36.2492 62.6568
1 49.697 38.0526 65.3056
1 48.0981 35.2274 65.3356
1 33.8085 41.6753 62.7909
1 33.8123 43.5077 65.4513
1 35.507 38.9608 62.811
1 36.8877 41.6806 62.8212
1 36.838 43.4865 65.3294
1 35.3919 40.7115 65.4
1 38.4924 38.8106 62.7479
1 40.0995 41.579 62.6657
1 40.0176 43.5429 65.3447
1 38.4602 40.7597 65.3252
1 41.6834 38.9336 62.6373
1 43.3044 41.8091 62.5539
1 43.2344 43.552 65.2768
1 41.6867 40.8421 65.2592
1 44.9269 39.0583 62.5589
1 46.4079 41.7476 62.5516
1 46.4623 43.6136 65.1517
1 44.8759 40.9053 65.1871
1 48.0996 39.0436 62.6603
1 49.7328 41.7687 62.6374
1 49.7322 43.6206 65.3093
1 48.1227 40.8314 65.256
1 30.5739 47.2366 62.737
1 30.5356 49.0407 65.4205
1 32.1146 44.429 62.9012
1 33.6075 47.1567 62.8059
1 33.6813 49.0054 65.4344
1 32.0594 46.2373 65.4783
1 35.1421 44.4638 62.7536
1 36.81 47.122 62.6839
1 36.8976 49.0085 65.3835
1 35.2579 46.2296 65.4488
1 38.4272 44.4438 62.7246
1 40.0807 47.3539 62.7969
1 40.0639 49.2422 65.2678
1 38.4661 46.3088 65.2925
1 41.5579 44.5588 62.7727
1 43.2112 47.2136 62.7235
1 43.262 49.1363 65.3133
1 41.6466 46.343 65.3324
1 44.8028 44.508 62.6223
1 46.4652 47.1438 62.6741
1 46.3957 49.0912 65.2179
1 44.8177 46.2611 65.2453
1 48.2111 44.5506 62.6882
1 49.5985 47.3094 62.6598
1 49.7201 49.1224 65.2191
1 48.0131 46.3539 65.3205
1 32.0347 49.9199 62.708
1 35.2574 49.8978 62.7397
1 38.4931 49.9776 62.7808
1 41.7648 50.0618 62.6699
1 44.8472 49.9282 62.6847
1 48.0925 49.9766 62.7
1 43.4286 32.6349 70.4302
1 46.2086 30.8944 68.0196
1 46.553 32.4325 70.5973
1 49.4667 30.8244 67.9239
1 49.562 32.4285 70.5523
1 37.0034 36.3669 67.9578
1 37.0563 37.9996 70.6001
1 40.1524 36.3586 68.0923
1 40.1213 38.0423 70.5303
1 38.6481 35.2721 70.5831
1 41.5996 33.7009 67.9622
1 43.3223 36.272 67.9338
1 43.2084 37.9856 70.5394
1 41.8066 35.2318 70.5522
1 44.8282 33.5573 67.9717
1 46.5063 36.2133 67.9186
1 46.5065 38.0679 70.4719
1 44.8906 35.3117 70.5205
1 47.9616 33.4798 67.9834
1 49.5514 36.2647 67.8967
1 49.6484 38.0351 70.4187
1 48.0496 35.3086 70.557
1 33.8524 41.6782 68.121
1 33.7457 43.4941 70.5598
1 35.5413 38.9775 67.9481
1 36.8792 41.8363 67.8741
1 36.8409 43.5174 70.584
1 35.4173 40.6848 70.6158
1 38.5023 39.0436 67.9577
1 40.1104 41.7915 67.8848
1 40.0713 43.6467 70.5024
1 38.4469 40.8055 70.5208
1 41.6979 39.0177 67.8364
1 43.3792 41.7735 67.8806
1 43.3079 43.5573 70.5788
1 41.5641 40.844 70.5476
1 44.9235 38.9892 67.8676
1 46.4186 41.7792 67.8041
1 46.4934 43.6095 70.4623
1 44.9795 40.7976 70.5067
1 48.0578 39.0645 67.879
1 49.7786 41.7835 67.8911
1 49.5661 43.5906 70.5471
1 48.0578 40.8312 70.3784
1 30.5474 47.3665 68.088
1 30.5743 49.1881 70.5482
1 32.054 44.5123 68.0491
1 33.6575 47.2125 68.0322
1 33.7551 49.0129 70.5806
1 32.1496 46.327 70.5017
1 35.132 44.4965 67.9775
1 36.838 47.2899 67.9519
1 36.8167 49.0486 70.6648
1 35.1787 46.2925 70.6037
1 38.3913 44.5219 67.8798
1 40.0299 47.4342 67.9015
1 40.0222 49.0575 70.4901
1 38.3394 46.3782 70.5356
1 41.7586 44.527 67.8948
1 43.3458 47.2874 67.789
1 43.1924 49.08 70.5763
1 41.626 46.281 70.4237
1 44.8233 44.4945 67.8215
1 46.3721 47.1488 67.8559
1 46.4507 49.1437 70.4747
1 44.8713 46.3461 70.6349
1 48.1139 44.5353 67.8
1 49.6459 47.2869 67.8773
1 49.6473 49.1232 70.528
1 48.0121 46.3585 70.4637
1 32.0942 49.9545 67.9877
1 35.1773 49.9008 67.9814
1 38.327 50.0451 67.9229
1 41.6099 49.9754 67.9028
1 44.8361 49.9806 67.8631
1 48.0847 49.955 67.7955
1 43.5387 32.5971 75.6797
1 46.5973 30.9137 73.1781
1 46.6282 32.7221 75.7549
1 49.5492 30.9022 73.2397
1 49.7113 32.5898 75.8361
1 36.9368 36.2608 73.2113
1 36.9502 38.0683 75.7591
1 40.0593 36.2704 73.0866
1 40.1577 38.1227 75.8588
1 38.5929 35.4281 75.8249
1 41.8234 33.5642 73.0767
1 43.311 36.2572 73.1585
1 43.3212 38.0941 75.7378
1 41.8231 35.3037 75.5668
1 44.9655 33.4976 73.0934
1 46.5286 36.233 73.0754
1 46.5222 38.0885 75.7194
1 44.9575 35.2511 75.6632
1 48.0821 33.5785 73.1062
1 49.624 36.3818 73.1061
1 49.6784 38.2212 75.7293
1 48.1986 35.4462 75.7161
1 33.8331 41.7757 73.2521
1 33.6707 43.6041 75.8111
1 35.48 38.9784 73.1667
1 36.9936 41.6904 73.1659
1 36.8042 43.5226 75.8015
1 35.3352 40.7079 75.9087
1 38.5579 38.9754 73.1856
1 40.1678 41.7167 73.1479
1 39.9834 43.4512 75.8372
1 38.5998 40.8057 75.7686
1 41.7269 38.9652 73.0852
1 43.4398 41.6893 73.1534
1 43.2546 43.5323 75.8023
1 41.7558 40.8147 75.78
1 44.983 39.0134 73.0947
1 46.5177 41.7129 73.1036
1 46.47 43.6438 75.6762
1 44.9768 40.9409 75.6392
1 48.1248 39.0637 72.9707
1 49.7527 41.8814 73.1277
1 49.7041 43.6603 75.7785
1 48.0772 40.917 75.6104
1 30.6597 47.4367 73.1118
1 30.6601 49.2751 75.7324
1 32.2666 44.7466 73.289
1 33.7156 47.2688 73.1971
1 33.6287 49.0656 75.8354
1 32.0429 46.4244 75.8527
1 35.4122 44.3955 73.2399
1 36.8173 47.1585 73.2369
1 36.8354 49.1239 75.7082
1 35.1008 46.3006 75.8668
1 38.5411 44.4627 73.1594
1 40.0397 47.2398 73.11
1 40.036 49.0679 75.6342
1 38.4159 46.3335 75.7655
1 41.6947 44.4755 73.1407
1 43.2406 47.2592 73.2242
1 43.1918 49.0571 75.756
1 41.5689 46.3368 75.6687
1 44.9236 44.5145 73.2318
1 46.3728 47.3757 73.1417
1 46.4154 49.1324 75.8244
1 44.7846 46.3631 75.844
1 48.0671 44.5985 73.1457
1 49.5781 47.2006 73.0387
1 49.6077 49.1479 75.7212
1 48.034 46.4217 75.7541
1 32.3054 49.9369 73.1349
1 35.3687 50.0698 73.1605
1 38.4114 49.9919 73.128
1 41.7352 49.9505 73.1129
1 44.9151 50.0592 73.1226
1 48.0284 49.9935 73.2099
1 43.2819 32.7097 80.7668
1 46.4444 31.011 78.1108
1 46.5149 32.5903 80.8387
1 49.5982 30.9388 78.4719
1 49.7022 32.7165 80.9701
1 36.9579 36.2458 78.2903
1 36.938 38.0468 80.8348
1 40.1702 36.3141 78.3959
1 40.2083 38.1094 80.9478
1 38.5906 35.4248 81.0301
1 41.8991 33.6792 78.2458
1 43.3117 36.3212 78.2761
1 43.4969 38.0701 80.812
1 41.778 35.4707 80.9501
1 44.9209 33.7652 78.2214
1 46.4707 36.3611 78.2996
1 46.5597 38.0174 80.9149
1 44.8454 35.348 80.828
1 48.0258 33.6318 78.3383
1 49.6111 36.2702 78.4452
1 49.7317 38.1726 80.9577
1 48.1609 35.3414 81.0105
1 33.9092 41.7074 78.4387
1 33.813 43.5618 81.0441
1 35.3084 38.9423 78.4156