5538
Atoms. Timestep: 60000
1 43.3552 30.8692 -0.102932
1 46.5038 30.9273 5.23702
1 46.4728 30.9068 -0.0481172
1 49.6252 30.738 5.14541
1 49.5866 31.0157 -0.119923
1 38.3987 37.1689 2.63194
1 38.563 39.0726 0.103988
1 40.0575 34.395 2.49067
1 40.1117 36.245 0.0919057
1 38.5898 33.4971 -0.0337674
1 40.2585 30.8203 -0.0996141
1 43.1758 34.3131 2.63576
1 43.2914 36.2426 -0.0601854
1 41.7015 33.5204 -0.0116487
1 44.7481 31.7004 2.58777
1 46.3649 34.3827 2.69471
1 46.4656 36.2882 0.0458705
1 44.8567 33.5172 -0.00901711
1 48.0666 31.7798 2.69051
1 49.6948 34.4578 2.50913
1 49.6924 36.2921 -0.0406556
1 47.9168 33.6371 0.0673655
1 35.2786 42.7203 2.63607
1 35.2261 44.4864 -0.0257098
1 36.9521 39.9549 2.70411
1 38.3843 42.757 2.60952
1 38.4551 44.598 -0.0630477
1 36.9756 41.8017 -0.0767809
1 40.0603 39.9507 2.70081
1 41.672 42.6436 2.59597
1 41.7186 44.5444 -0.00074085
1 40.0717 41.7891 0.0274827
1 41.6656 37.0911 2.71078
1 43.2752 39.7774 2.68765
1 43.2291 41.6963 -0.054238
1 41.7278 38.9701 0.0352464
1 44.7194 37.0393 2.70637
1 46.4125 39.9621 2.5911
1 46.4109 41.8002 -0.0132624
1 44.8816 38.9149 0.061853
1 47.9994 37.1846 2.56826
1 49.6065 39.8423 2.66464
1 49.5182 41.899 0.0143602
1 47.94 39.1367 -0.0651605
1 32.2907 48.064 2.55333
1 31.9833 50.1378 0.0032638
1 33.7453 45.3647 2.58603
1 35.3128 48.2714 2.54683
1 35.236 50.102 -0.0544651
1 33.7038 47.4237 -0.0713446
1 36.7921 45.5676 2.45904
1 38.5384 48.1886 2.56291
1 38.3928 50.0058 -0.0194072
1 36.8532 47.2593 -0.00729357
1 40.0944 45.4742 2.5033
1 41.6778 48.2223 2.65428
1 41.6117 49.8718 -0.0872633
1 40.0677 47.2551 0.00115974
1 43.2692 45.4844 2.61327
1 44.8996 48.118 2.64029
1 44.7603 50.0857 -0.103349
1 43.2319 47.2813 0.0776423
1 44.9084 42.631 2.58963
1 46.4035 45.4269 2.64941
1 46.389 47.2932 0.027692
1 44.8212 44.4213 -0.0579973
1 47.9897 42.5937 2.57829
1 49.6227 45.4249 2.60941
1 49.6703 47.3065 -0.0601029
1 47.9841 44.5603 -0.0594073
1 33.8103 50.9682 2.56113
1 36.9446 50.9831 2.68075
1 40.074 50.8798 2.63366
1 43.2041 50.8491 2.62976
1 46.5006 50.8085 2.51845
1 48.0743 48.1336 2.49004
1 43.5616 32.5429 8.2432
1 48.0711 29.9697 7.81559
1 46.4997 32.7214 7.80659
1 51.2239 29.8709 7.79624
1 49.6626 32.589 7.82252
1 36.935 36.4361 5.22208
1 36.7547 38.0401 7.97323
1 40.1251 36.1981 5.20324
1 40.1401 38.0685 7.90214
1 38.5617 35.4549 7.82683
1 41.6366 31.5554 2.34216
1 43.2828 36.2325 5.47376
1 43.2599 37.9675 7.91346
1 41.7629 35.2317 8.04044
1 44.7401 33.455 5.3493
1 46.4344 36.2157 5.23887
1 46.458 38.1229 7.87531
1 44.9487 35.2842 7.99213
1 48.0615 33.5798 5.18088
1 49.6672 36.3157 5.11748
1 49.6312 38.0726 7.83054
1 48.0985 35.432 7.67758
1 33.7932 41.978 5.3247
1 33.7745 43.6451 7.99493
1 35.3089 39.2489 5.29586
1 36.906 41.7993 5.34235
1 36.9416 43.6511 7.80532
1 35.2849 40.94 7.92498
1 38.435 39.0579 5.29146
1 40.0981 41.6724 5.31576
1 40.1058 43.5415 7.73314
1 38.3762 40.8181 7.81684
1 41.6995 38.8828 5.31077
1 43.2193 41.6132 5.15561
1 43.2373 43.4701 7.83804
1 41.8394 40.8057 7.86348
1 44.8776 38.9418 5.29406
1 46.4462 41.6313 5.31551
1 46.3029 43.448 7.88037
1 44.8976 40.7871 7.8906
1 47.9837 38.9139 5.23693
1 49.5937 41.639 5.11785
1 49.5733 43.4935 7.85876
1 48.0107 40.8401 7.82485
1 30.8524 47.3997 5.39778
1 30.667 49.2546 7.86905
1 32.3201 44.647 5.38122
1 33.8077 47.3821 5.2591
1 33.8125 49.1748 7.86369
1 32.3132 46.3864 7.9812
1 35.3426 44.6276 5.18017
1 36.9538 47.3281 5.23506
1 36.889 49.131 7.73987
1 35.3927 46.3428 7.86975
1 38.4952 44.5424 5.15207
1 40.0994 47.2612 5.1592
1 40.2327 49.1345 7.73548
1 38.6267 46.3758 7.82913
1 41.6669 44.4256 5.18046
1 43.2545 47.2957 5.25554
1 43.4453 49.1609 7.86806
1 41.9186 46.3552 7.90064
1 44.7686 44.4048 5.17352
1 46.4403 47.1348 5.21704
1 46.563 48.9603 7.91241
1 44.9441 46.1973 7.92034
1 48.0096 44.3063 5.24941
1 49.5334 47.1341 5.2202
1 49.7278 48.9669 7.85468
1 48.0568 46.1108 7.78131
1 32.2025 50.1121 5.14824
1 35.2972 50.1782 5.17743
1 38.4296 50.0443 5.21672
1 41.7764 50.084 5.24637
1 44.8927 49.9734 5.16607
1 48.0367 49.9133 5.22436
1 43.3732 32.7661 13.2133
1 46.6218 31.0123 10.3918
1 46.6272 32.6163 13.1391
1 49.6069 30.9232 10.3317
1 49.8107 32.5341 12.9753
1 37.149 36.2642 10.6785
1 36.8783 38.0597 13.1446
1 40.1602 36.2451 10.5516
1 40.0814 38.1547 13.1083
1 38.6675 35.4342 13.2161
1 41.7537 33.4798 10.6099
1 43.3337 36.1702 10.5348
1 43.2793 38.1308 12.9994
1 41.7151 35.4769 13.102
1 44.9411 33.554 10.6608
1 46.4664 36.2523 10.5208
1 46.5368 38.0095 13.107
1 44.9736 35.3191 13.1554
1 48.1452 33.6275 10.4066
1 49.6748 36.2944 10.5182
1 49.728 38.0886 13.2007
1 48.066 35.3177 13.1019
1 33.8392 41.7664 10.6394
1 33.7215 43.4411 13.1995
1 35.452 39.0439 10.5321
1 36.9733 41.7376 10.4455
1 36.9011 43.5054 13.017
1 35.4338 40.7571 13.2034
1 38.523 38.9148 10.4575
1 40.1639 41.6833 10.4563
1 40.1567 43.4763 13.0392
1 38.5564 40.7725 13.114
1 41.6817 38.8856 10.4651
1 43.3352 41.5981 10.541
1 43.3144 43.5111 13.0849
1 41.6615 40.802 13.1312
1 44.8649 38.9229 10.4972
1 46.5307 41.6927 10.4785
1 46.61 43.41 13.2107
1 44.8622 40.8276 13.2387
1 48.0355 38.9908 10.4959
1 49.6658 41.6878 10.4749
1 49.7699 43.5601 13.0498
1 48.0734 40.8241 13.1664
1 30.6926 47.3818 10.5025
1 30.685 49.081 13.3167
1 32.2998 44.5284 10.5929
1 33.8187 47.1828 10.5225
1 33.7091 49.0983 13.2258
1 32.1809 46.3606 13.223
1 35.3506 44.4791 10.5049
1 36.9007 47.2409 10.4821
1 36.833 48.998 13.1787
1 35.2229 46.1895 13.1165
1 38.609 44.4143 10.4204
1 40.1247 47.2154 10.3417
1 39.9439 48.9683 13.0403
1 38.4999 46.1852 12.9801
1 41.665 44.4333 10.4249
1 43.3055 47.1459 10.5426
1 43.2354 48.8762 13.0738
1 41.5837 46.2226 13.0018
1 44.8368 44.4384 10.4797
1 46.5836 47.1877 10.4817
1 46.5288 49.0926 13.177
1 44.8664 46.2681 13.0654
1 48.0241 44.4013 10.5703
1 49.6241 47.1911 10.4898
1 49.6865 49.0854 13.0878
1 48.0519 46.2738 13.2131
1 32.2682 50.0295 10.5513
1 35.3584 49.991 10.4971
1 38.4915 49.929 10.4155
1 41.7437 49.9023 10.5359
1 44.844 49.8961 10.5391
1 48.0964 49.9592 10.423
1 43.4253 32.4689 18.3245
1 43.4931 30.8311 15.5791
1 46.6403 32.5629 18.2305
1 46.4214 30.8812 15.6043
1 49.7156 32.493 18.3186
1 37.3022 36.4256 15.7299
1 36.9998 38.0139 18.3976
1 40.2445 36.3586 15.779
1 40.1435 37.9809 18.4078
1 38.6945 35.2578 18.3054
1 41.699 33.5272 15.7197
1 43.3243 36.2738 15.71
1 43.3163 37.9704 18.4527
1 41.8126 35.3033 18.3793
1 44.9002 33.5741 15.7581
1 46.5223 36.265 15.7529
1 46.533 38.0377 18.3316
1 44.9955 35.2111 18.3121
1 48.1358 33.6823 15.6756
1 49.827 36.264 15.7878
1 49.7343 37.9961 18.4217
1 48.214 35.281 18.294
1 33.7862 41.6441 15.993
1 33.7861 43.4552 18.366
1 35.3611 38.9406 15.7738
1 36.8977 41.6377 15.8021
1 36.8616 43.4687 18.3585
1 35.4009 40.6625 18.4378
1 38.5184 39.0463 15.8177
1 40.1222 41.609 15.824
1 40.0791 43.4835 18.4441
1 38.4982 40.7121 18.4241
1 41.7131 38.9639 15.7967
1 43.3194 41.6694 15.8436
1 43.2577 43.458 18.2967
1 41.6838 40.7316 18.3197
1 44.8596 38.9568 15.7837
1 46.599 41.7071 15.8399
1 46.4781 43.5083 18.3872
1 44.9097 40.7204 18.4531
1 48.1514 38.9718 15.7546
1 49.7609 41.6099 15.6928
1 49.6889 43.5112 18.3438
1 48.0655 40.7917 18.4215
1 30.8522 47.3272 15.979
1 30.7319 49.1327 18.4104
1 32.3129 44.5679 15.8453
1 33.8689 47.1913 15.7778
1 33.9316 48.8728 18.3583
1 32.2333 46.2631 18.3795
1 35.3211 44.3811 15.7135
1 36.9374 47.0608 15.6671
1 36.9706 48.832 18.3654
1 35.3595 46.2059 18.3421
1 38.4263 44.3712 15.6143
1 40.0322 47.0957 15.7365
1 40.1295 48.958 18.3376
1 38.4819 46.1223 18.3136
1 41.6101 44.4518 15.6454
1 43.2214 47.062 15.561
1 43.313 48.9632 18.3107
1 41.6461 46.1583 18.3171
1 44.9211 44.3598 15.7321
1 46.4881 47.1737 15.7412
1 46.4607 48.9412 18.2623
1 44.8154 46.2498 18.2384
1 48.0899 44.3195 15.7846
1 49.6335 47.1568 15.7673
1 49.7077 49.0111 18.3133
1 48.1595 46.1623 18.5028
1 32.3051 50.0224 15.8926
1 35.4164 50.0004 15.7625
1 38.5057 49.7721 15.6928
1 41.6724 49.7976 15.6296
1 44.8569 49.8447 15.6613
1 48.0812 49.9225 15.7763
1 43.4026 32.4599 23.6214
1 46.7276 30.8045 20.7758
1 46.4996 32.4864 23.5439
1 49.9108 30.8221 21.018
1 49.6369 32.4557 23.5516
1 37.175 36.1386 20.8851
1 37.0201 37.8369 23.6915
1 40.2458 36.1426 21.0279
1 40.1615 37.9033 23.645
1 38.6516 35.2135 23.5475
1 41.9268 33.4716 21.0388
1 43.425 36.2443 21.1117
1 43.2965 37.9594 23.6473
1 41.7727 35.1929 23.6516
1 45.0395 33.462 20.8598
1 46.5425 36.11 20.8643
1 46.4246 37.9152 23.6216
1 44.8995 35.2006 23.6019
1 48.2266 33.4538 20.9102
1 49.7362 36.1 20.9899
1 49.6177 37.8503 23.4288
1 47.9923 35.1114 23.5666
1 33.7469 41.6626 21.0558
1 33.8167 43.3618 23.612
1 35.3998 38.9374 21.1631
1 36.9499 41.5703 21.035
1 36.9229 43.4516 23.5645
1 35.3023 40.6727 23.7305
1 38.56 38.8152 21.0223
1 40.1121 41.5965 20.9926
1 40.1171 43.2625 23.6752
1 38.3967 40.5417 23.5892
1 41.7191 38.8702 21.1051
1 43.2196 41.646 21.0326
1 43.2881 43.4151 23.5672
1 41.6785 40.6925 23.6489
1 44.9666 38.9333 21.0793
1 46.5439 41.5932 20.9466
1 46.407 43.3684 23.5591
1 44.9516 40.6823 23.5983
1 48.167 38.8301 20.955
1 49.7383 41.6212 20.9167
1 49.6315 43.437 23.5408
1 48.0343 40.5723 23.59
1 30.7855 47.2976 21.0431
1 30.7529 49.1515 23.5308
1 32.239 44.4147 20.9776
1 33.8192 46.9885 20.9347
1 33.8773 48.9363 23.6097
1 32.1982 46.2504 23.5714
1 35.3387 44.2691 20.9834
1 36.9788 47.0174 21.0062
1 37.0499 48.9693 23.6045
1 35.3164 46.194 23.5709
1 38.5199 44.3749 20.9363
1 40.0428 47.097 20.9995
1 40.1523 48.978 23.5681
1 38.422 46.2165 23.668
1 41.7271 44.2873 21.0068
1 43.3235 47.0178 20.9012
1 43.2893 48.8564 23.4738
1 41.5543 46.0753 23.5566
1 44.9656 44.2875 20.894
1 46.5202 47.0709 20.8317
1 46.3618 48.8701 23.4093
1 44.8121 46.0765 23.553
1 48.1285 44.3951 21.0711
1 49.6632 47.1257 20.9757
1 49.7045 49.0052 23.5998
1 47.8907 46.2024 23.5253
1 32.3475 49.8855 21.0176
1 35.386 49.6884 20.9633
1 38.5105 49.889 20.9119
1 41.6788 49.8069 20.9126
1 44.9342 49.8049 20.8934
1 48.0887 49.844 21.0165
1 43.7158 30.76 26.4025
1 46.7964 30.6735 26.1761
1 37.2555 36.1839 26.3171
1 40.3367 36.1411 26.2464
1 42.0786 33.4107 26.2699
1 43.4297 36.1244 26.3028
1 45.1814 33.4055 26.2311
1 46.7072 36.0505 26.2956
1 48.2248 33.279 26.1815
1 49.7878 36.1302 26.1272
1 33.9702 41.7141 26.2476
1 35.6039 38.8362 26.2411
1 36.9388 41.671 26.1361
1 38.6563 38.8043 26.2137
1 40.1929 41.5928 26.2645
1 41.8325 38.8233 26.21
1 43.3472 41.6161 26.1919
1 44.9985 38.7837 26.2197
1 46.4722 41.5083 26.2676
1 48.1824 38.8617 26.1289
1 49.5787 41.5871 26.1964
1 30.8563 47.3018 26.187
1 32.1949 44.4935 26.1342
1 33.7919 47.1181 26.1992
1 35.3071 44.3699 26.1608
1 36.8299 47.0953 26.2054
1 38.4706 44.3565 26.1636
1 40.2039 47.1785 26.1737
1 41.717 44.2993 26.2579
1 43.3618 47.0874 26.1893
1 44.8332 44.3154 26.1766
1 46.4639 47.1405 26.0874
1 48.0588 44.3491 26.126
1 49.6045 47.1263 26.1643
1 32.2556 49.9503 26.266
1 35.4067 49.92 26.2001
1 38.5926 49.8861 26.1744
1 41.8111 49.9357 26.1917
1 44.8896 49.8996 26.2243
1 48.0112 49.8751 26.0141
1 43.4627 32.5342 28.9462
1 46.5361 32.2896 28.7779
1 49.7336 32.3345 28.8734
1 37.0337 37.9209 28.8987
1 40.2298 38.0347 28.9052
1 38.6516 35.2209 28.7237
1 43.3859 37.9445 28.9039
1 41.725 35.2895 28.8757
1 46.4829 37.9778 28.7593
1 45.0599 35.1034 28.8676
1 49.6647 37.8774 28.7649
1 48.1228 35.0495 28.7786
1 33.7328 43.4615 28.7756
1 36.9194 43.4586 28.7832
1 35.3869 40.6511 28.8431
1 40.0745 43.3924 28.7899
1 38.5025 40.7718 28.7606
1 43.3274 43.4488 28.8823
1 41.7944 40.7214 28.8183
1 46.4449 43.4642 28.7541
1 44.8165 40.645 28.7937
1 49.6527 43.4545 28.7755
1 48.0599 40.5522 28.7903
1 30.5745 49.1425 28.8283
1 33.8254 49.1019 28.8305
1 32.119 46.2854 28.866
1 36.9681 48.9255 28.7925
1 35.2328 46.1549 28.9129
1 40.2236 49.0543 28.7735
1 38.6057 46.1761 28.8708
1 43.3009 49.0786 28.7611
1 41.7672 46.2167 28.8597
1 46.4097 48.9959 28.7406
1 44.9274 46.2144 28.7898
1 49.6361 49.0431 28.7442
1 48.0822 46.2603 28.6894
1 43.1674 32.4355 34.0714
1 46.6005 30.6748 31.4218
1 46.2903 32.4827 34.1319
1 49.7572 30.6743 31.4799
1 49.7048 32.406 33.9892
1 37.0115 36.027 31.4133
1 36.9956 37.8765 34.0075
1 40.1767 36.0704 31.4801
1 40.0166 37.9541 34.1235
1 38.6927 35.1473 34.0764
1 41.7907 33.3979 31.4245
1 43.2495 36.051 31.4666
1 43.2254 37.8875 34.0899
1 41.7442 35.1693 34.0038
1 44.8699 33.2852 31.4607
1 46.4996 36.0057 31.3004
1 46.4494 38.0219 33.9754
1 44.7609 35.1038 33.9968
1 48.0512 33.2898 31.4189
1 49.655 36.102 31.3221
1 49.5498 37.8836 33.9957
1 48.0585 35.1347 33.9751
1 33.6281 41.6527 31.2255
1 33.6051 43.4373 33.9944
1 35.4176 38.8482 31.4538
1 36.8496 41.528 31.4136
1 36.7794 43.4259 33.9591
1 35.3144 40.6668 33.973
1 38.5975 38.8518 31.4509
1 40.0912 41.5884 31.3325
1 39.9788 43.4704 33.8898
1 38.403 40.6508 33.9092
1 41.7976 38.9051 31.4477
1 43.288 41.6785 31.4531
1 43.18 43.5089 34.1047
1 41.546 40.6942 33.99
1 44.925 38.8272 31.3772
1 46.5059 41.5984 31.295
1 46.4313 43.5197 34.0528
1 44.8939 40.6819 33.9373
1 48.0772 38.8581 31.4051
1 49.6322 41.585 31.3826
1 49.5863 43.4285 34.1167
1 48.0435 40.7562 33.8967
1 30.6233 47.4207 31.4785
1 30.7782 49.2006 34.1516
1 32.1723 44.5461 31.4205
1 33.8536 47.1332 31.4334
1 33.8417 49.0238 33.9811
1 32.1917 46.2872 33.9854
1 35.267 44.3274 31.4233
1 36.9132 47.0953 31.3778
1 36.9105 48.8858 34.1367
1 35.2522 46.1285 34.0155
1 38.483 44.276 31.4343
1 40.1932 47.194 31.4419
1 40.0747 48.9501 34.0222
1 38.5627 46.0939 34.07
1 41.6321 44.3266 31.3453
1 43.2623 47.1115 31.3239
1 43.2278 48.9598 34.0127
1 41.7273 46.123 33.9722
1 44.8862 44.2958 31.4804
1 46.4691 47.1412 31.3491
1 46.5166 49.0191 33.985
1 44.8762 46.3519 33.9544
1 48.0407 44.3568 31.4024
1 49.6579 47.1262 31.2476
1 49.7376 49.0006 34.0425
1 48.1246 46.2387 33.9997
1 32.4459 49.9059 31.3453
1 35.5829 49.8764 31.4364
1 38.7771 49.9308 31.4379
1 41.7682 49.961 31.3409
1 44.8856 49.977 31.3882
1 48.1536 49.8965 31.4883
1 43.3198 32.6899 39.2247
1 43.1318 30.6377 36.7516
1 46.4549 32.4643 39.1508
1 46.1685 30.6871 36.5652
1 49.5269 32.5276 39.2732
1 37.2058 36.1705 36.8145
1 37.0847 37.9267 39.3345
1 40.2565 36.1605 36.6905
1 40.1372 38.0552 39.3114
1 38.5534 35.2933 39.5028
1 41.652 33.4004 36.7179
1 43.2735 36.0994 36.7367
1 43.2511 37.8673 39.2531
1 41.6038 35.2055 39.2213
1 44.7327 33.3774 36.6615
1 46.3883 36.1166 36.579
1 46.4537 37.956 39.135
1 44.8652 35.2629 39.2828
1 47.924 33.4015 36.6165
1 49.5611 36.0722 36.6017
1 49.6089 37.95 39.1771
1 47.9954 35.2142 39.1344
1 33.8359 41.5272 36.5829
1 33.6575 43.3584 39.2402
1 35.4636 38.9523 36.6715
1 36.9245 41.5386 36.5892
1 36.8282 43.2643 39.1715
1 35.271 40.6644 39.3189
1 38.557 38.8768 36.6611
1 40.1095 41.7015 36.4794
1 40.0301 43.447 39.1209
1 38.4024 40.6171 39.1889
1 41.7045 38.8199 36.6459
1 43.2631 41.6274 36.5692
1 43.2401 43.4296 39.157
1 41.619 40.7292 39.1632
1 44.8933 38.875 36.5394
1 46.4835 41.6635 36.6148
1 46.355 43.5113 39.2442
1 44.9154 40.7792 39.1861
1 48.0578 38.8331 36.6179
1 49.661 41.6501 36.675
1 49.6576 43.4801 39.314
1 48.0554 40.7672 39.2161
1 30.6691 47.1176 36.6283
1 30.8188 48.9342 39.1739
1 32.2794 44.4161 36.4987
1 33.7825 47.0706 36.5747
1 33.7452 48.8841 39.2856
1 32.2404 46.1816 39.1528
1 35.3151 44.2786 36.6071
1 36.8568 47.0524 36.6163
1 37.0229 48.7885 39.2609
1 35.274 46.0908 39.195
1 38.4657 44.275 36.5073
1 40.1206 47.1566 36.5849
1 40.2006 48.8828 39.2663
1 38.3992 46.0463 39.2164
1 41.736 44.4393 36.5899
1 43.328 47.1493 36.5904
1 43.2964 49.029 39.1145
1 41.6617 46.1552 39.1827
1 44.8925 44.4027 36.6604
1 46.4273 47.25 36.6209
1 46.4904 48.9103 39.2591
1 44.8053 46.2911 39.1982
1 48.0701 44.4289 36.7027
1 49.6033 47.1452 36.7021
1 49.6751 48.9227 39.2874
1 48.0355 46.2967 39.3084
1 32.3355 49.7461 36.7144
1 35.4109 49.7915 36.6989
1 38.5293 49.8954 36.7136
1 41.7396 49.911 36.5978
1 44.971 49.9341 36.5804
1 48.1188 49.8332 36.5642
1 46.4925 30.7397 41.7629
1 49.6397 30.7071 41.7759
1 37.1286 36.1959 41.9787
1 40.2112 36.4125 41.954
1 41.7088 33.5637 41.9489
1 43.2628 36.2022 41.8479
1 44.8553 33.4857 41.8328
1 46.49 36.1265 41.8954
1 48.0571 33.517 41.832
1 49.6931 36.11 41.8488
1 33.8013 41.5816 41.8252
1 35.4428 38.8321 41.9293
1 36.9592 41.5823 41.8537
1 38.5489 38.9284 41.9719
1 40.1317 41.624 41.6728
1 41.7088 39.0217 41.8144
1 43.2994 41.6116 41.8102
1 44.858 38.9286 41.7406
1 46.5021 41.6115 41.8214
1 48.0425 38.867 41.8045
1 49.5769 41.6091 41.9347
1 30.7044 47.2326 41.7962
1 32.1613 44.3648 41.8605
1 33.7528 47.099 41.8535
1 35.2887 44.3608 41.874
1 36.9033 47.0226 41.8225
1 38.4958 44.366 41.8402
1 40.0234 47.0331 41.9235
1 41.7197 44.4309 41.7642
1 43.3198 47.1312 41.834
1 44.872 44.4549 41.8061
1 46.4812 47.1644 41.9016
1 48.046 44.4737 41.8358
1 49.6483 47.1348 41.7771
1 32.235 49.9287 41.8492
1 35.3985 49.8307 41.8167
1 38.5393 49.8445 41.7424
1 41.7983 49.8247 41.8946
1 44.9996 49.8286 41.7531
1 48.1106 49.8483 41.8234
1 43.5191 32.2754 44.3206
1 46.6107 32.4354 44.373
1 49.7349 32.3421 44.4706
1 37.0508 37.816 44.5001
1 40.2191 37.9808 44.5407
1 38.7446 35.2547 44.4003
1 43.2906 37.9168 44.4131
1 41.8777 35.2262 44.4107
1 46.4706 37.981 44.3949
1 45.0432 35.1715 44.4238
1 49.7378 37.9574 44.4284
1 48.0807 35.1775 44.4423
1 33.8492 43.5078 44.4744
1 36.9265 43.3521 44.4269
1 35.3533 40.5723 44.4632
1 40.1027 43.3673 44.4669
1 38.5075 40.6245 44.3809
1 43.2933 43.5234 44.3936
1 41.6951 40.633 44.5046
1 46.6289 43.4302 44.4078
1 44.8989 40.7902 44.4499
1 49.7365 43.4195 44.392
1 48.0324 40.6978 44.4668
1 30.6401 48.9576 44.4109
1 33.9133 48.9492 44.3865
1 32.1695 46.3712 44.3421
1 37.0042 48.9428 44.4213
1 35.3936 46.132 44.5149
1 40.047 48.9534 44.4643
1 38.5168 46.2078 44.6464
1 43.3078 48.9134 44.4403
1 41.7052 46.2648 44.4665
1 46.4974 48.8723 44.4598
1 44.8302 46.1309 44.5104
1 49.7377 48.9579 44.3297
1 48.1496 46.1144 44.4544
1 43.4529 32.5561 49.576
1 46.6847 30.7177 47.0517
1 46.7187 32.5554 49.5745
1 49.7973 30.6988 47.1258
1 49.7265 32.5829 49.5933
1 36.9963 36.0421 46.8151
1 37.0088 37.9045 49.5544
1 40.2291 36.0845 47.0393
1 40.2023 37.7984 49.7042
1 38.5371 35.1683 49.5104
1 41.9381 33.3948 46.9932
1 43.4183 36.0632 47.0099
1 43.3806 37.8836 49.584
1 41.7684 35.2182 49.6314
1 45.0172 33.3293 46.9216
1 46.5292 36.1045 47.058
1 46.4885 37.9789 49.5635
1 44.9455 35.2208 49.585
1 48.1519 33.4225 47.0127
1 49.6691 36.1455 46.8899
1 49.6021 37.9947 49.4872
1 48.1457 35.2723 49.5685
1 33.8174 41.589 47.0802
1 33.8281 43.3343 49.6325
1 35.315 38.7656 46.9496
1 36.9161 41.4681 47.048
1 36.9132 43.3065 49.7699
1 35.444 40.5475 49.6102
1 38.5037 38.7713 47.0457
1 40.0507 41.569 47.0708
1 40.0834 43.3323 49.7201
1 38.5957 40.6333 49.6411
1 41.5724 38.904 46.9838
1 43.2442 41.6512 47.0059
1 43.2524 43.3872 49.6521
1 41.6891 40.6354 49.6923
1 44.8556 38.9537 46.9498
1 46.5063 41.6805 46.9903
1 46.3622 43.4717 49.7064
1 44.8839 40.6498 49.4841
1 48.0375 38.8743 46.9806
1 49.7589 41.6166 47.0292
1 49.6485 43.5411 49.6198
1 48.0712 40.9168 49.5689
1 30.7286 47.1786 47.0053
1 30.6029 48.9858 49.6004
1 32.2865 44.3836 46.9563
1 33.821 47.1498 47.0474
1 33.808 48.924 49.624
1 32.2007 46.2064 49.6144
1 35.3959 44.2185 47.0132
1 36.8625 47.1093 47.1719
1 36.923 48.9699 49.7224
1 35.3346 46.1416 49.6009
1 38.5806 44.2847 47.163
1 40.158 47.1385 46.9748
1 40.1149 48.998 49.6703
1 38.5499 46.1496 49.7016
1 41.6795 44.3757 47.1267
1 43.3056 47.0772 47.1309
1 43.285 49.003 49.657
1 41.7043 46.2069 49.6991
1 44.9007 44.3693 47.0426
1 46.4417 47.0807 46.9818
1 46.5258 49.0983 49.5199
1 44.9221 46.27 49.6639
1 48.1663 44.3635 47.0527
1 49.6936 47.1489 47.0097
1 49.6303 49.0211 49.6743
1 48.016 46.2329 49.6454
1 32.4151 49.8671 46.9835
1 35.4915 49.7609 47.0877
1 38.5421 49.9801 47.1006
1 41.6928 49.9339 46.9698
1 44.9422 49.8604 46.9558
1 48.1118 49.921 47.0431
1 43.5485 32.5164 55.0293
1 53.098 30.6835 52.1542
1 46.7141 32.5671 54.8862
1 56.1706 30.6982 52.3933
1 49.7973 32.5421 54.755
1 37.1737 36.2484 52.124
1 37.11 37.908 54.8706
1 40.2815 36.139 52.25
1 40.2447 37.8898 54.8277
1 38.7006 35.3127 54.8148
1 42.0926 33.424 52.2803
1 43.4435 36.0603 52.2396
1 43.2996 37.9115 54.8169
1 41.8525 35.1448 54.8941
1 45.1717 33.3927 52.2544
1 46.6715 36.1101 52.2394
1 46.5018 38.0078 54.7481
1 44.93 35.1713 54.8836
1 48.2167 33.3901 52.3486
1 49.8172 36.1693 52.101
1 49.6819 38.0155 54.8449
1 48.1709 35.3372 54.8506
1 34.0455 41.8001 52.2049
1 33.8252 43.3703 54.8587
1 35.4747 38.9727 52.37
1 37.0958 41.6007 52.2601
1 37.0257 43.378 54.8251
1 35.4509 40.7001 54.8558
1 38.665 38.8503 52.26
1 40.2491 41.5161 52.2405
1 40.2244 43.3261 54.7962
1 38.7234 40.549 54.8048
1 41.7968 38.823 52.2158
1 43.4214 41.6237 52.1759
1 43.4497 43.4292 54.9024
1 41.8129 40.7123 54.937
1 44.9396 38.9419 52.0966
1 46.4637 41.7188 52.184
1 46.6153 43.4039 54.8386
1 44.9414 40.6965 54.6947
1 48.136 38.9689 52.1133
1 49.7423 41.6989 52.1361
1 49.7356 43.5984 54.8042
1 48.1426 40.7445 54.7738
1 30.8177 47.2436 52.1762
1 30.7028 49.0378 54.7924
1 32.299 44.3801 52.1035
1 33.8401 47.091 52.1368
1 33.7543 48.9974 54.8664
1 32.3079 46.2655 54.7548
1 35.5273 44.3911 52.2979
1 37.0043 47.1137 52.2139
1 36.9769 48.881 54.9252
1 35.3749 46.1771 54.8561
1 38.5925 44.2819 52.2701
1 40.0574 47.1237 52.3402
1 40.0751 48.8736 54.846
1 38.5447 46.1814 54.9025
1 41.7262 44.2974 52.3588
1 43.3178 47.1633 52.2474
1 43.3102 48.9097 54.7892
1 41.6514 46.2093 54.874
1 44.7947 44.328 52.2081
1 46.522 47.2056 52.2875
1 46.5661 49.1668 54.8279
1 45 46.1439 54.861
1 48.0571 44.4702 52.3234
1 49.6321 47.1207 52.2733
1 49.6203 49.0444 54.8423
1 48.1387 46.2491 54.8428
1 32.2562 49.8412 52.2017
1 35.3639 49.8369 52.221
1 38.5339 49.8276 52.3582
1 41.7141 49.8725 52.2616
1 44.9623 49.9002 52.1864
1 48.0758 49.9215 52.1569
1 43.4741 32.5058 60.2415
1 46.344 30.9773 57.4336
1 46.6332 32.6485 60.1652
1 49.52 30.9238 57.3296
1 49.8174 32.5703 60.1176
1 37.2794 36.1789 57.3432
1 37.1283 38.0331 60.087
1 40.4064 36.2255 57.5563
1 40.3333 37.786 60.169
1 38.5486 35.2053 59.9297
1 41.9592 33.4646 57.7061
1 43.4637 36.1967 57.5026
1 43.2877 38.0403 60.0038
1 41.8046 35.1927 60.1664
1 45.0173 33.5888 57.5916
1 46.546 36.3427 57.4784
1 46.5843 38.0576 60.0368
1 44.8561 35.334 60.1729
1 48.1069 33.4598 57.3681
1 49.6829 36.2128 57.4567
1 49.7055 38.0063 60.0418
1 48.1514 35.3245 60.0497
1 33.8663 41.6079 57.4934
1 33.7403 43.4265 60.0031
1 35.5541 38.8741 57.5702
1 37.0388 41.5174 57.397
1 37.0394 43.2958 60.0425
1 35.4074 40.7563 60.1107
1 38.6953 38.8498 57.4922
1 40.149 41.6058 57.4008
1 40.2449 43.418 59.9798
1 38.5358 40.5738 60.0453
1 41.7416 38.9211 57.4812
1 43.3513 41.7754 57.4148
1 43.4424 43.5813 59.9823
1 41.7472 40.7363 59.9825
1 44.9405 39.0639 57.3622
1 46.558 41.7511 57.3565
1 46.546 43.542 60.0065
1 44.8911 40.8247 60.0358
1 48.1341 38.9548 57.3798
1 49.7295 41.6072 57.2974
1 49.624 43.5881 60.1443
1 48.1042 40.8257 60.0516
1 30.7538 47.2661 57.3411
1 30.6677 48.9765 60.058
1 32.4198 44.5517 57.5244
1 33.811 47.1101 57.4957
1 33.6847 48.9481 60.0157
1 32.1303 46.2865 60.0504
1 35.5952 44.2104 57.5009
1 36.8616 47.1581 57.5659
1 36.9582 48.9987 60.1397
1 35.4424 46.098 60.0387
1 38.6877 44.3007 57.4206
1 40.0426 47.0409 57.4225
1 40.1026 48.9424 60.0759
1 38.5264 46.1187 60.1439
1 41.7173 44.3551 57.4736
1 43.19 47.0725 57.4294
1 43.2451 48.9534 60.0518
1 41.6303 46.2271 59.9737
1 44.9565 44.5015 57.4767
1 46.4362 47.292 57.401
1 46.4424 49.0209 59.9818
1 44.8978 46.2854 60.0375
1 48.2047 44.2902 57.4191
1 49.5613 47.2569 57.5031
1 49.6856 49.0301 60.099
1 48.105 46.3172 60.0875
1 32.2138 49.8812 57.5077
1 35.3615 49.9481 57.4916
1 38.5402 49.8075 57.3564
1 41.6983 49.8623 57.5611
1 44.8061 49.9429 57.3464
1 48.0948 49.8975 57.5265
1 43.3814 32.4767 65.3625
1 46.4546 30.928 62.6677
1 46.4802 32.5936 65.3328
1 49.7764 30.803 62.8113
1 49.6408 32.6537 65.2074
1 37.1136 36.2392 62.606
1 36.9097 37.9344 65.1892
1 40.1478 36.0614 62.6963
1 40.066 38.0421 65.2602
1 38.5251 35.3036 65.1476
1 41.8259 33.4612 62.8341
1 43.3056 36.1865 62.7405
1 43.2412 38.0591 65.3703
1 41.7461 35.3309 65.3819
1 44.9405 33.5522 62.795
1 46.565 36.1636 62.7281
1 46.4381 38.0017 65.2503
1 44.8567 35.2497 65.4752
1 48.0918 33.538 62.731
1 49.7232 36.1485 62.6466
1 49.6777 38.0062 65.2307
1 48.1124 35.2465 65.3563
1 34.0034 41.8314 62.735
1 33.7125 43.657 65.2673
1 35.41 38.9122 62.6166
1 36.9573 41.6209 62.6451
1 36.7968 43.4405 65.2023
1 35.3901 40.7233 65.2442
1 38.5566 38.8898 62.7977
1 40.0756 41.6614 62.5524
1 40.0688 43.5098 65.2386
1 38.4947 40.7893 65.3046
1 41.7582 38.868 62.6442
1 43.2755 41.691 62.5889
1 43.2156 43.5562 65.2577
1 41.6921 40.7692 65.0852
1 44.9753 38.7635 62.5719
1 46.5214 41.7289 62.6138
1 46.5655 43.5905 65.2413
1 44.8885 40.7557 65.0617
1 48.1596 38.9467 62.599
1 49.5848 41.7917 62.7205
1 49.7336 43.5684 65.2345
1 48.0693 40.7311 65.2206
1 30.6985 47.177 62.62
1 30.5244 49.0658 65.168
1 32.2212 44.523 62.6652
1 33.85 47.1965 62.5643
1 33.7642 48.9804 65.2337
1 32.1313 46.4569 65.2095
1 35.3886 44.4605 62.6596
1 36.9526 47.1553 62.6672
1 36.8225 49.002 65.2819
1 35.3868 46.2024 65.2966
1 38.4513 44.3732 62.6247
1 40.0696 47.0792 62.6461
1 40.1889 49.0451 65.259
1 38.421 46.3063 65.2473
1 41.7291 44.4424 62.6874
1 43.3757 47.1908 62.6404
1 43.396 49.066 65.3673
1 41.7484 46.3151 65.3031
1 44.852 44.3946 62.6561
1 46.4758 47.3154 62.6767
1 46.5679 49.0937 65.3087
1 44.911 46.3321 65.2594
1 48.0072 44.4716 62.6684
1 49.6781 47.2149 62.6277
1 49.7766 49.1816 65.1791
1 48.1522 46.4005 65.2249
1 32.1677 49.8244 62.6323
1 35.3592 49.8595 62.6291
1 38.5445 49.8234 62.6638
1 41.6323 49.8732 62.746
1 44.7999 49.9206 62.7052
1 48.0818 49.9824 62.6628
1 43.5712 32.6129 70.7196
1 46.4176 30.8409 67.8812
1 46.6833 32.5879 70.6002
1 49.5362 30.9124 67.8187
1 49.8818 32.4854 70.5271
1 37.0742 36.2765 67.8087
1 36.9141 37.9774 70.5351
1 40.1216 36.1959 67.8621
1 40.0654 38.0018 70.5102
1 38.6523 35.2911 70.4146
1 41.9452 33.51 68.051
1 43.298 36.257 68.0188
1 43.2588 38.0563 70.4571
1 41.7992 35.2763 70.522
1 45.0219 33.3987 68.0286
1 46.5706 36.1489 67.8586
1 46.4551 37.9907 70.4495
1 45.072 35.2597 70.5212
1 48.1953 33.5489 67.9732
1 49.7569 36.2089 67.8609
1 49.6715 38.061 70.5196
1 48.2234 35.35 70.5881
1 33.9099 41.717 67.9026
1 33.6972 43.423 70.4957
1 35.5816 39.1058 67.9165
1 36.9399 41.7489 67.8845
1 37.023 43.4884 70.5064
1 35.3197 40.8081 70.6019
1 38.5827 38.9572 67.8673
1 40.0751 41.7003 67.8472
1 40.1042 43.4475 70.4197
1 38.4934 40.7978 70.4699
1 41.7181 38.936 67.8617
1 43.2061 41.7226 67.7779
1 43.2773 43.5196 70.4955
1 41.626 40.7406 70.4982
1 44.915 38.9191 67.8374
1 46.4267 41.6164 67.8484
1 46.5654 43.5516 70.382
1 44.8104 40.8224 70.469
1 48.0504 38.905 67.8137
1 49.6474 41.6586 67.8659
1 49.6879 43.5024 70.3532
1 47.9217 40.8115 70.5659
1 30.6165 47.1511 67.7303
1 30.7446 48.9351 70.596
1 32.2261 44.4723 67.9554
1 33.7511 47.2059 67.8031
1 33.7649 48.9424 70.5499
1 32.204 46.3064 70.4785
1 35.3607 44.3271 67.878
1 36.9143 47.2056 67.868
1 36.9027 49.0575 70.4483
1 35.3206 46.1787 70.3927
1 38.4836 44.4499 67.8135
1 40.136 47.2019 67.7868
1 40.0435 49.0764 70.4905
1 38.5144 46.2284 70.5248
1 41.7493 44.4798 67.7632
1 43.3109 47.1822 67.8595
1 43.2365 49.018 70.5586
1 41.6544 46.2655 70.4122
1 44.9773 44.4989 67.9455
1 46.4581 47.3005 67.8848
1 46.4586 49.1399 70.4985
1 44.8501 46.3679 70.5331
1 48.0589 44.4 67.7327
1 49.7044 47.1963 67.8773
1 49.7727 49.0695 70.4792
1 48.0996 46.2226 70.3094
1 32.1631 49.8176 67.893
1 35.3254 49.9404 67.9002
1 38.5257 49.9778 67.7926
1 41.7383 49.9838 67.935
1 44.904 50.0309 67.9263
1 48.1221 50.1113 67.9019
1 43.6554 32.4833 75.9328
1 46.5258 30.8612 73.2532
1 46.7645 32.6888 75.7958
1 49.6621 30.9103 73.1877
1 49.8027 32.5263 75.7493
1 37.2195 36.2777 73.1244
1 37.0969 38.0066 75.7747
1 40.261 36.0974 73.0895
1 40.1927 37.9822 75.914
1 38.7501 35.2136 75.8525
1 41.8936 33.4319 73.2059
1 43.4302 36.1537 73.1706
1 43.3704 38.0495 75.744
1 41.9393 35.2037 75.7934
1 45.0069 33.5756 73.3156
1 46.5282 36.2469 73.1341
1 46.5163 38.0311 75.7588
1 45.038 35.3238 75.8495
1 48.1694 33.6252 73.1674
1 49.8085 36.2526 73.212
1 49.7688 38.1637 75.7769
1 48.3044 35.3657 75.818
1 33.8786 41.6315 73.1162
1 33.6455 43.4465 75.6043
1 35.5676 38.9583 73.1545
1 37.0058 41.6646 73.08
1 36.8563 43.437 75.629
1 35.3344 40.7469 75.7408
1 38.6343 38.9645 73.1597
1 40.1507 41.6843 73.1291
1 40.1358 43.54 75.7575
1 38.4991 40.7565 75.6991
1 41.7176 38.9121 73.1114
1 43.3193 41.7599 73.0808
1 43.2996 43.5414 75.7988
1 41.8297 40.7732 75.6457
1 45.0238 39.0113 73.0684
1 46.5043 41.7307 73.0636
1 46.5271 43.6179 75.7343
1 45.0181 40.7719 75.6812
1 48.1678 38.865 73.1181
1 49.7044 41.6989 73.0906
1 49.6386 43.5911 75.7346
1 48.1265 40.8936 75.6392
1 30.7518 47.3248 73.311
1 30.6288 49.0156 75.8739
1 32.2886 44.4329 73.0329
1 33.7292 47.1043 73.0656
1 33.9035 49.0273 75.7955
1 32.377 46.3243 75.7922
1 35.2977 44.3281 73.0085
1 36.8536 47.1009 73.101
1 36.969 49.0165 75.6893
1 35.302 46.2305 75.6863
1 38.6729 44.3404 73.0928
1 40.1228 47.1703 73.0425
1 40.1887 49.0221 75.7412
1 38.4436 46.2562 75.6717
1 41.8328 44.4304 73.0286
1 43.2843 47.1701 73.1951
1 43.3949 49.0344 75.739
1 41.6532 46.3149 75.6929
1 44.969 44.49 73.1162
1 46.4116 47.1818 73.0684
1 46.4205 49.1251 75.7358
1 44.9348 46.2836 75.7871
1 48.0681 44.4722 72.9671
1 49.5781 47.2253 73.1677
1 49.5998 49.0577 75.6514
1 48.0615 46.2845 75.7345
1 32.195 50.0735 73.2054
1 35.2682 49.9593 72.9885
1 38.3819 49.981 73.0805
1 41.7335 49.9272 73.0528
1 44.8611 50.0472 73.1437
1 48.014 50.1011 73.0929
1 43.3319 32.5825 81.0292
1 46.2273 31.0604 78.3432
1 46.5659 32.6863 81.039
1 49.3218 30.9355 78.3473
1 49.6847 32.6498 80.9522
1 37.0586 36.2482 78.4053
1 36.9618 38.0621 80.9781
1 40.1844 36.2813 78.3917
1 40.1293 38.0797 80.9374
1 38.7425 35.3242 80.9989
1 41.759 33.4454 78.4807
1 43.2045 36.3302 78.3544
1 43.2755 38.0644 81.0409
1 41.7832 35.2727 80.9567
1 44.8922 33.6911 78.5277
1 46.5293 36.3794 78.4409
1 46.4427 38.2135 80.9567
1 44.8885 35.4358 81.0805
1 48.0335 33.6264 78.4415
1 49.7694 36.4167 78.3459
1 49.6551 38.1816 81.043
1 48.0646 35.4075 81.024
1 33.9843 41.8039 78.2848
1 33.9358 43.5895 80.978