5538
Atoms. Timestep: 70000
1 43.3068 30.8509 -0.384488
1 46.6349 30.8129 5.17656
1 46.469 30.8125 -0.091705
1 49.6463 30.724 5.1446
1 49.6336 30.9562 -0.176109
1 38.3908 37.0875 2.48942
1 38.4995 38.8359 -0.0742432
1 39.9838 34.581 2.22366
1 40.0833 36.2907 -0.20343
1 38.6033 33.5493 -0.325843
1 40.1614 30.9233 -0.268612
1 43.2634 34.4295 2.39995
1 43.2662 36.2593 -0.19234
1 41.7129 33.5579 -0.404148
1 44.8538 31.5386 2.4761
1 46.3268 34.4295 2.49171
1 46.4103 36.2598 -0.0308916
1 44.7759 33.4497 -0.111044
1 47.9945 31.8596 2.5141
1 49.6702 34.3329 2.44115
1 49.6424 36.1814 -0.0514659
1 47.9798 33.5723 -0.139768
1 35.2784 42.4972 2.60033
1 35.2212 44.3585 -0.0548583
1 36.8374 39.7586 2.47064
1 38.3913 42.5352 2.58118
1 38.5052 44.4538 -0.0603419
1 36.7271 41.6544 -0.0500788
1 40.0304 39.9038 2.53121
1 41.6081 42.6478 2.58584
1 41.6391 44.3292 -0.0619891
1 39.9217 41.6658 -0.0612669
1 41.6651 37.1393 2.54545
1 43.0978 39.8165 2.50678
1 43.2196 41.5893 -0.0983299
1 41.6374 38.8934 -0.1595
1 44.7447 37.1102 2.5409
1 46.4197 39.7877 2.50857
1 46.3553 41.6978 -0.102725
1 44.8943 38.991 -0.12534
1 48.1194 36.997 2.56278
1 49.5889 39.8842 2.48001
1 49.4888 41.8215 0.00126272
1 48.0506 38.8751 -0.0819954
1 32.1833 47.9175 2.48239
1 32.2805 49.9004 -0.133569
1 33.5705 45.2245 2.6031
1 35.2467 48.019 2.52886
1 35.279 49.9012 -0.0886012
1 33.7186 47.0884 -0.180439
1 36.7694 45.2501 2.52136
1 38.4076 48.0741 2.62153
1 38.3954 49.972 -0.165902
1 36.8168 47.1999 -0.0990362
1 40.0034 45.2917 2.52512
1 41.5973 48.0852 2.45579
1 41.5614 49.857 -0.114265
1 39.9741 47.1631 -0.137746
1 43.2394 45.3226 2.6981
1 44.8002 48.1102 2.53335
1 44.7697 49.977 -0.066764
1 43.1798 47.2395 -0.161506
1 44.7328 42.4998 2.69513
1 46.408 45.3245 2.62949
1 46.3106 47.2325 -0.0262371
1 44.7938 44.5104 -0.134082
1 47.9496 42.5939 2.7219
1 49.6238 45.3906 2.60988
1 49.5175 47.2271 -0.0480372
1 47.8318 44.4797 -0.0107042
1 33.6416 50.7794 2.52919
1 36.7992 50.8553 2.49418
1 39.9875 50.8216 2.54191
1 43.1846 50.7297 2.65891
1 46.3366 50.9526 2.49089
1 47.9517 48.1517 2.5815
1 43.5742 32.4438 8.02109
1 47.9365 29.8544 7.80058
1 46.6643 32.599 7.75873
1 51.1941 29.8552 7.64082
1 49.6804 32.5711 7.77426
1 37.1379 36.1997 5.19193
1 36.8989 37.8607 7.81162
1 40.1346 36.1971 5.02232
1 40.0402 37.842 7.76485
1 38.6118 35.2649 7.71431
1 41.6489 31.8188 2.10722
1 43.2761 36.0948 5.12719
1 43.2297 38.0271 7.64157
1 41.7389 35.2494 7.73557
1 44.9688 33.4145 5.22085
1 46.44 36.0852 5.16298
1 46.394 37.9453 7.78953
1 44.8658 35.2626 7.88537
1 48.2412 33.3826 5.18293
1 49.6636 36.151 5.05088
1 49.6846 37.9978 7.72548
1 48.1409 35.3598 7.82396
1 33.8425 41.5867 5.28293
1 33.6587 43.2807 7.92874
1 35.5229 38.823 5.28651
1 36.8824 41.4774 5.1224
1 36.7919 43.3282 7.84779
1 35.3585 40.7338 7.83141
1 38.5413 38.873 5.12298
1 40.0535 41.5576 5.22338
1 40.0638 43.3969 7.90048
1 38.5224 40.5704 7.7909
1 41.6333 38.7983 5.16347
1 43.2144 41.5813 5.24108
1 43.3173 43.4142 7.88911
1 41.5754 40.6434 7.87526
1 44.8051 38.8017 5.10204
1 46.2745 41.5834 5.24515
1 46.4565 43.4331 7.77021
1 44.7582 40.6692 7.7352
1 47.971 38.8377 5.14881
1 49.4891 41.5736 5.2025
1 49.4922 43.5813 7.81265
1 47.9325 40.6046 7.77655
1 30.716 47.1243 5.23693
1 30.6992 48.8643 7.78957
1 32.2906 44.4141 5.30356
1 33.7339 47.163 5.13322
1 33.6723 48.9247 7.87538
1 32.1364 46.0824 7.83643
1 35.315 44.3009 5.22458
1 36.7536 47.0452 5.2287
1 36.7827 48.9259 7.78618
1 35.1633 46.0753 7.78968
1 38.4879 44.3029 5.18398
1 40.0217 47.1896 5.15051
1 39.9901 48.9258 7.8223
1 38.3885 46.2161 7.70835
1 41.6131 44.3948 5.18071
1 43.1992 47.1789 5.17448
1 43.2291 49.0022 7.79236
1 41.6479 46.209 7.78299
1 44.7163 44.3731 5.22762
1 46.3429 47.1386 5.26275
1 46.3193 49.086 7.72751
1 44.808 46.1208 7.75946
1 48.0151 44.4267 5.11688
1 49.6346 47.2954 5.0549
1 49.5313 48.9779 7.68662
1 47.8118 46.3016 7.76066
1 32.09 49.8283 5.23859
1 35.3152 49.9049 5.14235
1 38.4286 49.8696 5.09524
1 41.5698 49.9224 5.20912
1 44.7437 50.0146 5.21946
1 47.8867 49.971 5.12709
1 43.4405 32.4987 13.0583
1 46.4492 30.7364 10.3003
1 46.4605 32.5529 13.0945
1 49.6243 30.6753 10.1535
1 49.5731 32.4268 12.9707
1 37.1062 36.1087 10.3829
1 36.9063 37.8729 13.1268
1 40.1166 36.121 10.5112
1 40.0132 37.9644 13.0778
1 38.4613 35.2185 13.0923
1 41.938 33.3705 10.4878
1 43.3422 36.1176 10.4318
1 43.2579 37.9841 12.9402
1 41.7656 35.2283 13.1258
1 45.0828 33.4744 10.5169
1 46.5071 36.145 10.4065
1 46.4089 37.939 12.9145
1 44.9587 35.2118 13.0217
1 48.14 33.4541 10.4037
1 49.6854 36.1463 10.4059
1 49.6126 38.0175 12.9455
1 48.0541 35.2951 12.9008
1 33.846 41.589 10.5545
1 33.6523 43.3638 13.1046
1 35.4226 38.7142 10.2291
1 36.8689 41.5471 10.4269
1 36.9282 43.3722 13.0007
1 35.296 40.6268 13.0667
1 38.4708 38.8042 10.4229
1 40.0227 41.6264 10.4963
1 40.0309 43.5406 13.0553
1 38.3894 40.6307 13.1641
1 41.5372 38.856 10.4213
1 43.2392 41.6384 10.4071
1 43.146 43.4705 13.0311
1 41.6219 40.7089 12.9683
1 44.8052 38.961 10.3465
1 46.3922 41.6727 10.3732
1 46.3414 43.4707 12.9625
1 44.8552 40.706 12.9996
1 48.0448 38.8327 10.281
1 49.6708 41.521 10.3781
1 49.6282 43.4608 12.9597
1 47.9568 40.7057 12.8946
1 30.5823 47.0929 10.447
1 30.5806 48.9352 13.0224
1 32.2124 44.3276 10.5018
1 33.6579 46.9966 10.4217
1 33.6558 48.8964 12.9532
1 32.207 46.1145 13.107
1 35.2941 44.3723 10.4511
1 36.8542 47.098 10.3076
1 36.7498 48.9634 13.0546
1 35.3054 46.1362 13.0696
1 38.4531 44.2984 10.3778
1 39.9582 46.9917 10.4411
1 40.0273 48.9215 13.0061
1 38.3992 46.2592 13.0499
1 41.6694 44.4371 10.3933
1 43.2126 47.1005 10.4413
1 43.2338 49.0203 12.931
1 41.6613 46.3272 13.0458
1 44.8414 44.3695 10.3151
1 46.3581 47.1321 10.406
1 46.4052 48.9611 12.9249
1 44.8199 46.161 13.0945
1 47.9323 44.4057 10.4565
1 49.4895 47.1586 10.3729
1 49.5705 49.0869 13.1349
1 47.9532 46.2559 12.9994
1 32.1675 49.8346 10.3988
1 35.2532 49.9082 10.4248
1 38.361 49.8693 10.4121
1 41.5803 49.8785 10.3558
1 44.7626 50.0658 10.3507
1 47.9577 49.919 10.3345
1 43.3237 32.4339 18.3075
1 43.706 30.8324 15.6845
1 46.5396 32.4102 18.2734
1 46.7405 30.8366 15.6748
1 49.6428 32.2828 18.2403
1 37.0319 36.1589 15.84
1 37.0529 38.075 18.2911
1 40.1542 36.0804 15.7062
1 40.1541 38.0043 18.2197
1 38.6263 35.4356 18.3784
1 41.949 33.4041 15.7834
1 43.426 36.0995 15.6789
1 43.3092 37.9021 18.2275
1 41.8686 35.187 18.2748
1 44.9903 33.485 15.6452
1 46.5869 36.1167 15.6092
1 46.5134 37.7911 18.2261
1 45.0316 35.0522 18.3174
1 48.1638 33.5022 15.6543
1 49.6648 36.2036 15.4941
1 49.5746 37.8887 18.0828
1 48.2435 35.1129 18.2082
1 33.8707 41.5744 15.6685
1 33.7791 43.4755 18.3422
1 35.2459 38.7559 15.9479
1 36.836 41.5719 15.755
1 36.9131 43.4669 18.305
1 35.3753 40.6959 18.3519
1 38.4251 38.8226 15.6527
1 40.1225 41.651 15.7035
1 40.1033 43.432 18.3633
1 38.5014 40.6746 18.3119
1 41.6148 38.8653 15.4882
1 43.3339 41.5231 15.639
1 43.3424 43.3089 18.2756
1 41.7125 40.6557 18.2076
1 44.8476 38.8148 15.5718
1 46.4194 41.5824 15.6047
1 46.4945 43.3804 18.2994
1 44.9101 40.6094 18.3105
1 47.9313 38.875 15.556
1 49.6062 41.5528 15.6238
1 49.6942 43.47 18.1795
1 48.0066 40.5891 18.246
1 30.7923 47.0547 15.6122
1 30.6993 49.0006 18.2229
1 32.3673 44.3609 15.8299
1 33.7999 47.2005 15.6368
1 33.7955 48.9053 18.2648
1 32.2636 46.2881 18.3121
1 35.4116 44.3798 15.7095
1 36.9356 47.0679 15.7085
1 36.9007 48.9618 18.3023
1 35.2847 46.1639 18.2942
1 38.5152 44.3262 15.6892
1 40.0964 47.1643 15.6108
1 40.1562 48.9622 18.2249
1 38.5606 46.3123 18.2232
1 41.8703 44.3135 15.6644
1 43.3037 47.1682 15.6258
1 43.3535 48.8803 18.2326
1 41.7065 46.1436 18.226
1 44.9687 44.3361 15.6643
1 46.4421 47.1764 15.6221
1 46.4872 48.9653 18.2683
1 44.9527 46.2066 18.3076
1 48.1037 44.3174 15.5357
1 49.4564 47.254 15.709
1 49.5982 49.0016 18.4506
1 48.0675 46.3043 18.3454
1 32.0689 49.8313 15.6276
1 35.246 49.8275 15.6348
1 38.4088 49.8207 15.6966
1 41.7022 49.8262 15.6902
1 44.8599 49.8957 15.6512
1 47.9904 49.9967 15.7286
1 43.5558 32.4936 23.5479
1 46.6411 30.6599 20.8277
1 46.5798 32.5512 23.4505
1 49.6768 30.687 20.9773
1 49.6733 32.5587 23.4224
1 37.1384 36.2153 20.9418
1 36.8884 37.9592 23.5388
1 40.2219 36.0989 20.9995
1 40.0466 37.8887 23.6012
1 38.6927 35.1096 23.5132
1 41.8445 33.4545 21.0566
1 43.4119 36.1409 20.9075
1 43.2519 37.8194 23.4074
1 41.8096 35.1873 23.4727
1 44.9238 33.3182 20.8996
1 46.6 36.1046 20.9089
1 46.4602 38.0002 23.5071
1 45.0709 35.2146 23.5255
1 48.1616 33.3838 20.806
1 49.7734 36.2165 20.894
1 49.6457 37.9882 23.4756
1 48.0544 35.331 23.5406
1 33.8471 41.6258 20.8731
1 33.705 43.4335 23.401
1 35.3347 38.8509 20.9074
1 36.9716 41.6426 20.9945
1 36.8701 43.3738 23.5256
1 35.305 40.642 23.5612
1 38.5118 38.897 20.8973
1 40.1525 41.5318 20.8883
1 40.0515 43.3887 23.5336
1 38.4821 40.6789 23.5122
1 41.5831 38.771 20.9504
1 43.3582 41.4877 20.8125
1 43.2039 43.3922 23.4143
1 41.6814 40.5426 23.5595
1 44.9408 38.7419 20.8503
1 46.4703 41.5381 20.7809
1 46.3071 43.4097 23.5181
1 44.7403 40.6014 23.4256
1 48.1166 38.8174 20.8528
1 49.581 41.6924 20.7913
1 49.5752 43.4199 23.5412
1 47.9811 40.6519 23.395
1 30.7189 47.2204 20.9248
1 30.7673 48.9646 23.5086
1 32.3052 44.4594 20.789
1 33.7591 47.0895 20.8774
1 33.7442 48.9999 23.6171
1 32.2185 46.2134 23.4604
1 35.349 44.3553 20.9582
1 36.801 47.1078 20.8949
1 36.817 48.9684 23.4684
1 35.2537 46.2094 23.597
1 38.519 44.326 20.9455
1 40.1014 47.1118 20.8565
1 40.0466 48.9262 23.4711
1 38.4816 46.1311 23.4443
1 41.6776 44.3485 20.8361
1 43.2355 47.044 20.781
1 43.3218 48.8542 23.4288
1 41.6682 46.1923 23.5405
1 44.8431 44.2765 20.8747
1 46.3872 47.1966 20.9196
1 46.4383 49.034 23.5563
1 44.8043 46.1697 23.4711
1 47.9782 44.4037 20.851
1 49.6387 47.0885 20.9164
1 49.5944 48.9747 23.5932
1 48.1482 46.1132 23.4109
1 32.2085 49.9064 20.8699
1 35.3365 49.9228 20.9999
1 38.5698 49.8546 20.8501
1 41.6845 49.9685 20.8972
1 44.8754 49.9518 20.8987
1 48.0124 49.8933 21.0875
1 43.8962 30.6805 26.2174
1 46.9208 30.7816 26.0356
1 37.0827 36.1022 26.1131
1 40.2445 36.0878 26.0565
1 42.0559 33.2841 26.0896
1 43.4035 36.043 26.0629
1 45.1804 33.4624 26.1225
1 46.5888 36.2402 26.1895
1 48.2818 33.4803 26.1112
1 49.7732 36.2047 26.1083
1 33.7576 41.7158 26.1661
1 35.3508 38.9603 26.1997
1 36.9257 41.5959 26.1911
1 38.3928 38.7686 26.1656
1 40.0732 41.5331 26.0728
1 41.684 38.8146 26.1411
1 43.2258 41.6242 26.0774
1 44.8555 38.8525 26.1586
1 46.3145 41.5955 26.115
1 47.9979 38.9493 26.1199
1 49.5569 41.6303 26.033
1 30.7953 47.1987 26.1107
1 32.3708 44.5005 26.2005
1 33.8297 47.2698 26.1759
1 35.3626 44.3626 26.2219
1 37.0031 46.9867 26.0867
1 38.4777 44.2477 26.0985
1 40.0859 47.0972 26.0767
1 41.6279 44.4432 26.0773
1 43.2542 47.1322 26.1588
1 44.7233 44.373 26.1314
1 46.5413 47.1612 26.0511
1 48.0714 44.4007 26.1496
1 49.5877 47.2671 26.1404
1 32.2452 49.9446 26.1916
1 35.3527 49.8186 26.0954
1 38.4452 49.8924 25.9724
1 41.6284 49.9094 25.9958
1 44.8194 49.8622 26.1522
1 47.9678 49.9853 26.1657
1 43.6055 32.5773 28.7303
1 46.7077 32.4281 28.6169
1 49.7137 32.5105 28.763
1 37.0191 37.9261 28.8245
1 40.1795 37.7856 28.6684
1 38.5269 35.2034 28.7099
1 43.3692 37.8755 28.5797
1 41.8981 35.0519 28.7333
1 46.4927 37.9708 28.8408
1 45.0755 35.2921 28.7353
1 49.6209 38.0785 28.6863
1 48.1928 35.2544 28.6869
1 33.748 43.4189 28.8532
1 36.8809 43.4552 28.8271
1 35.3609 40.6874 28.8385
1 40.0964 43.516 28.7267
1 38.5314 40.7273 28.8495
1 43.1954 43.4868 28.7615
1 41.5455 40.7284 28.6891
1 46.4512 43.5325 28.6907
1 44.7621 40.797 28.6237
1 49.6208 43.3473 28.7839
1 48.0233 40.71 28.6507
1 30.7207 49.0051 28.7423
1 33.7846 49.0603 28.836
1 32.2907 46.2676 28.7511
1 36.9482 48.9867 28.6631
1 35.3814 46.3104 28.7306
1 40.1294 48.9652 28.7788
1 38.529 46.1749 28.8231
1 43.3825 48.9629 28.793
1 41.6907 46.3118 28.734
1 46.6128 48.974 28.7012
1 44.8911 46.2859 28.6579
1 49.7055 48.9258 28.7313
1 48.0868 46.2353 28.7869
1 43.3634 32.4037 34.0011
1 46.5789 30.6791 31.4367
1 46.613 32.3597 34.0762
1 49.6987 30.772 31.3131
1 49.7779 32.5095 33.9366
1 37.2088 36.2039 31.4059
1 37.0151 37.8077 34.1065
1 40.1513 36.1192 31.3568
1 40.1067 37.8216 34.0215
1 38.7168 35.1583 33.9539
1 41.8519 33.4987 31.5555
1 43.2936 36.2675 31.4134
1 43.2627 37.9796 34.0758
1 41.7928 35.1462 34.0958
1 45.0148 33.3802 31.378
1 46.4011 36.1868 31.3482
1 46.4352 37.9053 33.9499
1 44.9146 35.1453 33.9714
1 48.1464 33.4098 31.3765
1 49.7167 36.1515 31.3032
1 49.6466 37.8557 33.935
1 48.0678 35.1841 33.9128
1 33.8241 41.6961 31.5035
1 33.8613 43.4134 34.1122
1 35.3483 38.92 31.4799
1 36.9595 41.5581 31.5287
1 37.04 43.2995 34.0429
1 35.4543 40.551 34.1416
1 38.516 38.8507 31.4895
1 40.1611 41.6016 31.4774
1 40.1824 43.3776 34.0641
1 38.5685 40.6671 34.1184
1 41.6677 38.8816 31.4013
1 43.3996 41.6574 31.4064
1 43.3499 43.4135 33.9501
1 41.6878 40.6437 34.0538
1 44.8543 38.9101 31.4089
1 46.4984 41.6699 31.2928
1 46.3591 43.459 33.9132
1 44.8497 40.6526 33.9269
1 48.0418 38.8743 31.2658
1 49.5736 41.5795 31.2716
1 49.5489 43.4302 33.8478
1 48.0895 40.625 33.8396
1 30.7181 47.2944 31.3768
1 30.727 48.9609 33.9577
1 32.4461 44.4862 31.4494
1 33.7963 47.1755 31.3547
1 33.8428 48.8816 33.9375
1 32.1672 46.1842 34.0343
1 35.4154 44.3937 31.4321
1 37.0339 47.0852 31.346
1 37.0024 48.9063 34.0068
1 35.3919 46.1908 34.034
1 38.5826 44.3133 31.3372
1 40.1145 47.1527 31.3814
1 40.0751 48.941 34.0312
1 38.5484 46.2064 34.0377
1 41.7426 44.4072 31.3423
1 43.1742 47.2236 31.3579
1 43.254 49.0829 34.0423
1 41.7043 46.1512 34.0364
1 44.9434 44.4698 31.3288
1 46.4554 47.2167 31.3111
1 46.4434 49.0082 33.9944
1 44.8164 46.2515 33.8951
1 48.0906 44.4359 31.3601
1 49.5911 47.1778 31.3737
1 49.6951 49.0011 33.9125
1 48.043 46.2303 34.0133
1 32.2235 49.9604 31.3215
1 35.3994 49.8341 31.3742
1 38.6062 49.9598 31.4273
1 41.7115 49.9113 31.4742
1 44.86 49.9197 31.3832
1 48.0327 49.9928 31.3189
1 43.4318 32.4437 39.1185
1 43.4877 30.6819 36.6807
1 46.666 32.4473 39.34
1 46.5193 30.8996 36.7213
1 49.771 32.4898 39.1429
1 37.0172 36.08 36.6396
1 36.9856 37.8719 39.3319
1 40.1645 36.0381 36.6496
1 40.1217 37.9637 39.3156
1 38.6584 35.3247 39.1995
1 41.8167 33.2631 36.6426
1 43.3387 36.0727 36.6825
1 43.3633 37.8228 39.1896
1 41.7328 35.0942 39.3298
1 44.8663 33.4494 36.5912
1 46.4637 36.1004 36.6258
1 46.5548 37.922 39.133
1 44.9791 35.07 39.262
1 48.1891 33.4316 36.6726
1 49.6142 36.1821 36.5576
1 49.7817 37.9152 39.1043
1 48.1628 35.2272 39.2577
1 33.9678 41.6591 36.7409
1 33.8342 43.4955 39.2041
1 35.5452 38.8677 36.7568
1 36.9943 41.5236 36.7175
1 37.0093 43.3789 39.2025
1 35.4714 40.737 39.3187
1 38.5013 38.8052 36.7093
1 40.1085 41.6054 36.7758
1 40.2153 43.4039 39.2881
1 38.5915 40.7074 39.3619
1 41.6542 38.8255 36.7025
1 43.3296 41.6029 36.6695
1 43.3743 43.4737 39.1745
1 41.7662 40.6443 39.2855
1 44.8701 38.8738 36.6001
1 46.466 41.5709 36.4454
1 46.42 43.4045 39.0424
1 44.9612 40.7643 39.1562
1 48.0726 38.9461 36.5263
1 49.6866 41.5609 36.4923
1 49.6342 43.5018 39.1849
1 48.153 40.6848 39.101
1 30.7578 47.2337 36.596
1 30.8027 48.9786 39.2139
1 32.3605 44.6672 36.6537
1 33.8115 47.2471 36.64
1 33.8824 48.9436 39.2067
1 32.2568 46.3106 39.244
1 35.4623 44.4026 36.6997
1 36.9372 47.2045 36.63
1 37.007 49.0581 39.1802
1 35.453 46.1579 39.2999
1 38.4937 44.328 36.6039
1 40.1056 47.1269 36.6744
1 40.0967 48.939 39.1941
1 38.5438 46.1813 39.2402
1 41.7521 44.2852 36.6346
1 43.29 47.1562 36.565
1 43.2362 49.0542 39.1529
1 41.7568 46.1871 39.1957
1 44.9539 44.3665 36.5499
1 46.4074 47.1099 36.5371
1 46.4136 48.9148 39.2071
1 44.9331 46.1736 39.1756
1 48.1409 44.4091 36.5662
1 49.6045 47.1203 36.5339
1 49.6722 48.858 39.1722
1 48.0381 46.2117 39.1848
1 32.4109 49.852 36.5458
1 35.4088 49.8611 36.5305
1 38.6155 49.9265 36.5557
1 41.7701 49.9131 36.666
1 44.8717 50.0343 36.6129
1 48.0617 49.8766 36.6004
1 47.0146 30.8498 42.0541
1 50.2173 30.9021 41.7987
1 37.0265 36.1984 41.9063
1 40.2375 36.0842 41.9075
1 41.9339 33.3722 41.8023
1 43.5028 35.9583 41.7903
1 45.1379 33.3413 41.8966
1 46.6248 36.035 41.7897
1 48.353 33.5242 41.8709
1 49.801 36.1884 41.8329
1 33.93 41.6825 41.7967
1 35.5878 38.9808 42.0061
1 37.0311 41.6015 41.9335
1 38.6771 38.8185 41.9252
1 40.2016 41.4826 41.9581
1 41.7536 38.7756 41.8214
1 43.4351 41.5795 41.752
1 45.0228 38.8111 41.7052
1 46.5257 41.6251 41.7658
1 48.1486 38.9194 41.784
1 49.7722 41.7315 41.7015
1 30.7281 47.3004 41.804
1 32.2374 44.4875 41.6776
1 33.8392 47.1074 41.8859
1 35.3879 44.298 41.8273
1 36.965 47.1171 41.8429
1 38.5617 44.3624 41.9375
1 40.2237 47.0574 41.798
1 41.7884 44.3851 41.7962
1 43.3042 47.1343 41.7384
1 44.9601 44.4118 41.7946
1 46.4883 47.0578 41.8121
1 48.0762 44.3912 41.6949
1 49.7305 47.0302 41.7905
1 32.3095 49.9797 41.8048
1 35.3982 49.9354 41.7435
1 38.6137 49.7634 41.7977
1 41.7502 49.9081 41.7858
1 44.9498 49.8973 41.812
1 48.0874 49.8169 41.9269
1 43.3586 32.4446 44.4981
1 46.5524 32.4862 44.4795
1 49.6861 32.5277 44.3094
1 37.039 37.9665 44.5443
1 40.2467 37.8887 44.5352
1 38.5296 35.2348 44.5662
1 43.4695 37.8189 44.3809
1 41.8749 35.1245 44.4833
1 46.5173 37.9964 44.4309
1 45.0235 35.1559 44.5033
1 49.7298 38.0479 44.4072
1 48.0767 35.3164 44.4177
1 33.8179 43.5081 44.3962
1 36.9219 43.4279 44.4103
1 35.3523 40.7227 44.4938
1 40.2431 43.3957 44.4661
1 38.6436 40.654 44.5509
1 43.3998 43.4127 44.4568
1 41.7814 40.7332 44.5108
1 46.4107 43.4907 44.3009
1 44.8872 40.6999 44.477
1 49.6483 43.5521 44.3302
1 48.1103 40.7952 44.389
1 30.7363 49.0995 44.338
1 33.7742 48.9429 44.3293
1 32.1276 46.3063 44.3498
1 37.031 49.0562 44.3801
1 35.4657 46.2229 44.4573
1 40.1504 48.9208 44.4388
1 38.5754 46.2505 44.4517
1 43.2935 48.9814 44.4174
1 41.8047 46.17 44.4673
1 46.436 48.961 44.3886
1 44.9 46.1379 44.4006
1 49.7052 48.9354 44.3881
1 48.2055 46.2835 44.429
1 43.3999 32.5033 49.8776
1 46.9737 30.7615 47.0643
1 46.5757 32.4272 49.7028
1 50.0082 30.872 46.9784
1 49.7064 32.4944 49.5284
1 37.1063 36.2029 47.1447
1 37.1493 37.8081 49.7554
1 40.2303 36.0436 47.1008
1 40.2571 37.976 49.7062
1 38.8267 35.2735 49.8383
1 42.0039 33.2453 47.1813
1 43.4902 36.0387 47.0735
1 43.4268 37.8512 49.6231
1 41.8905 35.1162 49.7773
1 45.0235 33.3516 47.0294
1 46.6178 36.0823 47.1199
1 46.5402 37.9319 49.7669
1 44.9502 35.1075 49.6408
1 48.2374 33.4343 46.985
1 49.7311 36.1219 47.1196
1 49.7133 38.0153 49.7626
1 48.1468 35.1994 49.6877
1 34.0358 41.7686 47.0842
1 33.8035 43.4369 49.6106
1 35.4869 38.9853 47.1526
1 37.0184 41.6134 47.1169
1 36.9019 43.5628 49.6443
1 35.3923 40.6717 49.6897
1 38.573 38.8863 47.1217
1 40.2057 41.5982 47.0648
1 40.1353 43.5041 49.7062
1 38.503 40.7401 49.6136
1 41.8616 38.8017 47.1342
1 43.3036 41.5881 47.1358
1 43.3913 43.4116 49.6885
1 41.797 40.7279 49.6994
1 45.0411 38.8021 47.0811
1 46.5666 41.6855 47.0071
1 46.5206 43.3646 49.6347
1 44.9612 40.7548 49.7029
1 48.0906 38.8377 47.0417
1 49.7223 41.7319 46.9457
1 49.616 43.5703 49.6244
1 48.2272 40.6962 49.5636
1 30.8471 47.3778 46.9301
1 30.6871 49.0587 49.7366
1 32.4227 44.5421 46.9512
1 33.9057 47.2409 46.9448
1 33.7613 49.1288 49.6306
1 32.1379 46.2661 49.576
1 35.4454 44.4964 46.9886
1 36.9521 47.3134 47.1154
1 36.9009 49.0795 49.6353
1 35.3259 46.2793 49.7041
1 38.5527 44.3835 47.0049
1 40.0207 47.1916 47.058
1 40.0304 49.0192 49.6701
1 38.554 46.252 49.6908
1 41.6856 44.3134 47.0775
1 43.2842 47.1144 47.1148
1 43.2048 48.912 49.7309
1 41.6803 46.2018 49.7036
1 44.9802 44.3796 47.1255
1 46.4864 47.2084 46.902
1 46.4758 48.9886 49.6563
1 44.999 46.2064 49.7607
1 48.0671 44.4691 46.9912
1 49.64 47.1476 47.1738
1 49.6695 49.0044 49.686
1 48.0821 46.2836 49.6684
1 32.4045 49.992 46.9751
1 35.439 50.0491 47.0033
1 38.5265 50.0022 46.9664
1 41.6442 49.9917 47.0133
1 44.8396 49.8688 47.0505
1 48.051 49.9325 46.9853
1 43.3998 32.48 54.8472
1 52.9755 31.0113 52.335
1 46.4848 32.532 54.9652
1 56.0796 30.8494 52.3038
1 49.7175 32.5483 54.9254
1 37.2576 36.1075 52.3399
1 36.9572 37.9557 54.8935
1 40.4142 36.1951 52.3624
1 40.0626 37.9586 54.8946
1 38.7767 35.1757 54.9345
1 41.7828 33.4554 52.3622
1 43.4392 36.2162 52.4624
1 43.3273 38.1021 54.962
1 41.9013 35.3325 54.9145
1 44.9639 33.503 52.2959
1 46.5381 36.1975 52.4015
1 46.4804 38.0651 54.9378
1 44.952 35.2206 55.0167
1 48.0388 33.5374 52.4106
1 49.6172 36.116 52.2936
1 49.7147 37.9728 54.8094
1 48.118 35.2598 54.982
1 33.8623 41.5618 52.1932
1 33.7542 43.4097 54.9087
1 35.5955 38.9036 52.2663
1 36.9916 41.6249 52.2459
1 36.8226 43.3894 54.9616
1 35.3447 40.7009 54.7567
1 38.6306 38.8964 52.2516
1 40.1635 41.6027 52.2502
1 40.0457 43.4283 54.8584
1 38.5007 40.7047 54.8466
1 41.7381 38.8733 52.1928
1 43.3057 41.6422 52.3601
1 43.227 43.4449 54.907
1 41.6604 40.6495 54.858
1 44.9459 38.9745 52.1923
1 46.529 41.6653 52.2393
1 46.463 43.4428 54.875
1 44.7806 40.8297 55.0689
1 48.0533 38.9093 52.3495
1 49.6246 41.6986 52.2848
1 49.8066 43.4117 55.0271
1 47.9589 40.8005 54.9406
1 30.7418 47.1641 52.2507
1 30.789 48.9781 54.8173
1 32.302 44.4362 52.2572
1 33.7206 47.2465 52.1837
1 33.8265 49.0144 54.8806
1 32.3523 46.2748 54.9571
1 35.2828 44.2332 52.2895
1 36.8435 47.0396 52.3166
1 36.9781 49.005 54.876
1 35.4029 46.1689 54.8706
1 38.4827 44.3499 52.3306
1 40.1695 47.0355 52.3312
1 40.0363 48.9611 54.8276
1 38.4772 46.1999 54.9595
1 41.6731 44.3717 52.2461
1 43.2628 47.0254 52.306
1 43.3374 49.0271 54.848
1 41.6844 46.1679 54.998
1 44.9201 44.3392 52.2017
1 46.5325 47.1316 52.3702
1 46.428 49.0799 54.8357
1 44.8555 46.1845 54.8816
1 48.1782 44.3991 52.3045
1 49.7505 47.1235 52.3228
1 49.6122 48.9521 54.9504
1 48.0296 46.287 54.9051
1 32.2535 49.9715 52.291
1 35.3376 49.913 52.3508
1 38.5065 49.8447 52.3059
1 41.6385 49.8393 52.3365
1 44.8323 49.8158 52.2205
1 48.0149 49.8207 52.2454
1 43.4111 32.6423 60.0613
1 46.4343 30.7258 57.551
1 46.5514 32.5348 60.1534
1 49.5967 30.6735 57.6973
1 49.6369 32.4747 60.1389
1 37.1579 36.0921 57.3553
1 37.087 38.144 60.0851
1 40.2183 36.1854 57.4555
1 40.1999 38.0389 60.1597
1 38.6947 35.5143 60.1744
1 41.7717 33.3739 57.4303
1 43.3729 36.1764 57.4834
1 43.256 38.0193 60.1656
1 41.7647 35.2715 60.1263
1 44.878 33.4762 57.5237
1 46.4808 36.2717 57.6005
1 46.5133 38.059 60.1411
1 44.9146 35.2298 60.1366
1 48.0222 33.4217 57.5172
1 49.6357 36.242 57.5339
1 49.7329 38.0838 60.154
1 48.1871 35.2792 60.1387
1 33.9758 41.801 57.4547
1 33.6742 43.6024 60.1162
1 35.4777 39.0573 57.4591
1 37.022 41.7201 57.4428
1 36.806 43.494 60.1209
1 35.3496 40.8646 60.1668
1 38.6162 38.8614 57.4701
1 40.1871 41.5258 57.4215
1 40.1062 43.4435 60.209
1 38.5395 40.7623 60.0383
1 41.7065 38.8269 57.5369
1 43.3129 41.5531 57.5749
1 43.2657 43.5625 60.1648
1 41.5757 40.7501 60.2056
1 44.8925 38.9591 57.6429
1 46.3856 41.6704 57.5547
1 46.4822 43.4773 60.1002
1 44.8325 40.748 60.1082
1 48.0566 38.9217 57.5091
1 49.6141 41.6174 57.5568
1 49.7954 43.5128 60.0105
1 48.1441 40.7637 60.1351
1 30.7449 47.2612 57.4728
1 30.7372 49.2492 60.0408
1 32.2018 44.6101 57.5851
1 33.8495 47.2891 57.4377
1 33.7743 49.1087 60.0403
1 32.1755 46.5148 60.1807
1 35.2476 44.4703 57.454
1 36.9109 47.1585 57.5394
1 36.8939 48.9903 60.1233
1 35.2557 46.3229 60.1913
1 38.4598 44.4248 57.4738
1 40.1213 47.3088 57.4869
1 40.0987 49.0737 60.1408
1 38.601 46.2082 60.0611
1 41.5428 44.27 57.5219
1 43.3168 47.0455 57.4599
1 43.2516 48.9318 60.0886
1 41.703 46.2662 60.067
1 44.7624 44.3725 57.5385
1 46.4717 47.056 57.4435
1 46.474 49.008 60.1017
1 44.9158 46.2506 60.0819
1 48.0581 44.3244 57.4438
1 49.6682 47.0611 57.5549
1 49.5955 48.9813 60.0268
1 48.0216 46.1848 60.0274
1 32.3251 49.934 57.4537
1 35.3889 50.0464 57.4972
1 38.5125 49.9783 57.504
1 41.6886 49.8565 57.5667
1 44.8715 49.7681 57.4666
1 47.9984 49.799 57.4443
1 43.5173 32.6123 65.3119
1 46.488 30.8254 62.7544
1 46.5721 32.5256 65.2481
1 49.6627 30.8424 62.5289
1 49.7559 32.4557 65.3356
1 37.1588 36.3333 62.7259
1 37.022 38.0625 65.2961
1 40.2487 36.1504 62.8109
1 40.1572 38.0011 65.4206
1 38.6379 35.4662 65.4283
1 41.9202 33.5021 62.7053
1 43.3516 36.2164 62.731
1 43.3034 37.9106 65.41
1 41.8069 35.2327 65.3409
1 45.0334 33.4756 62.728
1 46.5663 36.2144 62.7901
1 46.4878 38.0265 65.3937
1 44.9998 35.2111 65.3887
1 48.2225 33.4465 62.7409
1 49.7745 36.332 62.5544
1 49.7822 37.9465 65.2887
1 48.1339 35.2434 65.3659
1 33.8322 41.7113 62.7776
1 33.7742 43.5687 65.283
1 35.4935 39.0139 62.6694
1 37.0442 41.7092 62.7579
1 36.9556 43.4569 65.3926
1 35.4541 40.7891 65.2693
1 38.694 38.946 62.7734
1 40.2282 41.6481 62.8168
1 40.1019 43.4949 65.3031
1 38.5237 40.8407 65.4626
1 41.7842 38.9048 62.8627
1 43.3586 41.6406 62.7546
1 43.3101 43.4653 65.3922
1 41.7206 40.6928 65.4459
1 44.9597 38.8644 62.7824
1 46.4679 41.7867 62.677
1 46.5009 43.4036 65.3904
1 44.8736 40.725 65.3782
1 48.1088 39.0815 62.7269
1 49.7208 41.7077 62.6102
1 49.572 43.5152 65.2511
1 47.9829 40.6625 65.3517
1 30.7694 47.3897 62.7176
1 30.8131 49.0064 65.4443
1 32.147 44.6287 62.7802
1 33.7546 47.2702 62.6684
1 33.8914 48.9545 65.3975
1 32.1277 46.2925 65.4493
1 35.318 44.4925 62.7263
1 37.0207 47.1336 62.6641
1 36.9924 49.004 65.3822
1 35.2598 46.2318 65.4015
1 38.5568 44.4166 62.7
1 40.151 47.0942 62.7088
1 40.1285 48.9936 65.3632
1 38.4637 46.3321 65.4323
1 41.7258 44.2856 62.7494
1 43.3289 47.1844 62.7085
1 43.3131 49.0556 65.4073
1 41.6494 46.2992 65.3458
1 44.9245 44.4908 62.7194
1 46.4566 47.1666 62.7576
1 46.5191 49.056 65.3633
1 44.8559 46.3164 65.384
1 48.0627 44.4689 62.6596
1 49.5677 47.1862 62.6729
1 49.7292 49.0762 65.232
1 48.0366 46.2912 65.3092
1 32.192 50.014 62.65
1 35.3218 49.8669 62.7245
1 38.6435 49.9119 62.744
1 41.7359 49.9159 62.8261
1 44.9066 49.7956 62.7568
1 48.0437 49.9456 62.7887
1 43.4939 32.6179 70.7427
1 46.5744 30.7689 67.8568
1 46.6973 32.5046 70.4402
1 49.777 30.809 68.0592
1 49.7681 32.5737 70.6344
1 37.0844 36.2788 67.9697
1 36.9352 38.063 70.6141
1 40.1731 36.1581 67.9125
1 40.1398 38.0117 70.7092
1 38.525 35.3104 70.5687
1 41.8578 33.4263 67.9602
1 43.4242 36.0734 67.9575
1 43.3408 37.9945 70.5188
1 41.7782 35.2197 70.484
1 45.0209 33.4242 67.8994
1 46.5955 36.1386 67.9679
1 46.6143 38.0196 70.5604
1 45.0239 35.256 70.5961
1 48.1791 33.4455 67.885
1 49.7231 36.1912 67.8822
1 49.6961 38.1003 70.5174
1 48.2727 35.2389 70.5574
1 33.8825 41.669 67.7488
1 33.7182 43.4845 70.5569
1 35.5027 38.9268 68.0484
1 36.9137 41.6732 68.0065
1 36.8549 43.4033 70.5416
1 35.2525 40.7397 70.5171
1 38.5517 38.9331 68.0259
1 40.1717 41.7521 67.993
1 40.1023 43.4637 70.6631
1 38.4994 40.7552 70.5583
1 41.7265 38.8628 68.0277
1 43.3567 41.6376 67.9597
1 43.338 43.5715 70.5774
1 41.6747 40.7482 70.587
1 44.9566 38.9247 67.9432
1 46.4605 41.6247 68.0325
1 46.5028 43.6332 70.6129
1 44.898 40.7542 70.5924
1 48.1696 38.9426 67.9205
1 49.6702 41.7125 67.8314
1 49.7784 43.5294 70.4657
1 48.1542 40.8729 70.5293
1 30.6999 47.3983 68.019
1 30.7817 49.0135 70.48
1 32.1242 44.4709 67.9685
1 33.7636 47.2154 68.0835
1 33.8539 49.0925 70.5783
1 32.1973 46.2774 70.5012
1 35.2525 44.3893 68.0146
1 36.9397 47.2375 68.1007
1 36.9579 48.9997 70.6735
1 35.2924 46.3245 70.7239
1 38.4864 44.5176 67.9692
1 40.1253 47.214 68.0578
1 40.0619 49.0911 70.5867
1 38.5583 46.2881 70.6212
1 41.7041 44.3943 67.9902
1 43.2886 47.1653 67.9493
1 43.3677 49.0701 70.5723
1 41.7235 46.2853 70.5614
1 44.9017 44.4041 67.9814
1 46.4601 47.2059 67.9409
1 46.4427 49.0309 70.4378
1 44.8938 46.2576 70.5692
1 48.0008 44.5103 67.9496
1 49.6527 47.2481 67.8542
1 49.6419 49.1386 70.5868
1 48.1266 46.299 70.5044
1 32.3268 50.1001 67.9887
1 35.4085 49.9489 67.9487
1 38.5604 50.0472 68.005
1 41.6791 49.9739 67.8604
1 44.9091 50.0401 67.9445
1 48.1348 50.0171 67.8604
1 43.5565 32.5891 75.7134
1 46.5772 30.8429 73.1019
1 46.6332 32.5887 75.7654
1 49.6694 30.8239 73.1633
1 49.8015 32.5544 75.6787
1 37.056 36.1866 73.1582
1 37.0013 38.0873 75.811
1 40.2215 36.1638 73.1996
1 40.1838 38.0866 75.7544
1 38.7054 35.4253 75.8475
1 41.9352 33.5122 73.2307
1 43.4364 36.152 73.1139
1 43.4548 37.9555 75.7514
1 41.8863 35.3445 75.771
1 44.9993 33.4941 73.1902
1 46.658 36.2863 73.2042
1 46.5636 38.2321 75.8245
1 45.1074 35.319 75.6711
1 48.1603 33.6161 73.1035
1 49.7922 36.3212 73.0898
1 49.7547 38.1087 75.8919
1 48.2455 35.4366 75.7646
1 33.7986 41.6516 73.2293
1 33.5681 43.4713 75.8217
1 35.3595 38.8455 73.2347
1 36.9155 41.6728 73.1561
1 36.8334 43.5291 75.7983
1 35.3609 40.7926 75.8157
1 38.5219 38.9608 73.2458
1 40.0434 41.633 73.2026
1 40.0643 43.7547 75.7061
1 38.5753 40.8089 75.7934
1 41.7531 38.9006 73.1447
1 43.2128 41.7715 73.1197
1 43.258 43.6329 75.7974
1 41.7624 40.7653 75.7274
1 44.919 39.0008 73.1367
1 46.4457 41.7223 73.2252
1 46.4992 43.5815 75.8431
1 44.7673 40.8723 75.6908
1 48.0858 39.0209 73.1039
1 49.6664 41.7199 73.1749
1 49.6848 43.5913 75.8535
1 48.0739 40.8855 75.9038
1 30.6586 47.1643 73.0946
1 30.5428 49.106 75.6408
1 32.0631 44.4244 73.0792
1 33.709 47.0806 73.2452
1 33.6085 48.9501 75.7393
1 32.0916 46.2853 75.7793
1 35.15 44.3949 73.1649
1 36.8851 47.1729 73.2643
1 36.7279 49.0063 75.7359
1 35.2556 46.2072 75.8981
1 38.527 44.4613 73.0967
1 39.9597 47.2089 73.1743
1 40.0006 49.122 75.8256
1 38.4869 46.2817 75.8091
1 41.7059 44.5194 73.123
1 43.2642 47.2996 73.164
1 43.2028 49.1472 75.7548
1 41.6773 46.4001 75.7288
1 44.8373 44.4823 73.2797
1 46.4541 47.2098 73.1279
1 46.4574 49.1336 75.7948
1 44.8144 46.4254 75.6524
1 48.0127 44.4522 73.1551
1 49.5889 47.2418 73.1301
1 49.5345 49.1344 75.7116
1 48.0296 46.3357 75.8405
1 32.2452 49.9625 73.1037
1 35.2986 49.9046 73.2324
1 38.5303 49.9128 73.2658
1 41.6842 49.9837 73.1672
1 44.9277 49.9491 73.1301
1 48.0156 49.9707 73.1654
1 43.6546 32.6538 80.9178
1 46.4925 31.1024 78.2516
1 46.6979 32.7627 81.0375
1 49.5582 30.8928 78.2304
1 49.7137 32.6541 80.9201
1 37.1445 36.3449 78.3898
1 36.9463 38.1462 81.029
1 40.211 36.2476 78.4082
1 40.1532 38.1876 80.9164
1 38.7086 35.5266 80.9578
1 41.7842 33.5782 78.3753
1 43.3913 36.2466 78.3731
1 43.3526 38.133 80.9418
1 41.7974 35.5158 81.0363
1 44.8747 33.7186 78.3003
1 46.5565 36.2699 78.3744
1 46.4335 38.1563 80.9548
1 44.9418 35.3303 81.0618
1 48.164 33.6467 78.3803
1 49.763 36.317 78.454
1 49.612 38.1926 81.008
1 48.1349 35.5135 81.0547
1 33.9423 41.8687 78.3767