5538
Atoms. Timestep: 80000
1 43.3284 31.0045 -0.061215
1 46.5514 30.7314 5.14657
1 46.4359 31.0501 -0.0307909
1 49.6585 30.8249 5.09034
1 49.644 31.0639 -0.118974
1 38.5772 37.2333 2.56197
1 38.4264 38.9379 -0.141942
1 40.0803 34.468 2.44337
1 40.1538 36.3427 -0.107931
1 38.6745 33.5497 -0.273539
1 40.1328 30.877 -0.0765871
1 43.2795 34.521 2.3186
1 43.2131 36.3196 -0.138097
1 41.7394 33.5688 -0.0960798
1 44.9399 31.8005 2.50254
1 46.4504 34.3507 2.66237
1 46.4831 36.2735 -0.211382
1 44.8523 33.6442 -0.0327281
1 48.0532 31.7 2.50908
1 49.6708 34.3789 2.53039
1 49.7546 36.2057 -0.0373923
1 48.0277 33.6954 -0.0522331
1 35.3488 42.4678 2.46815
1 35.2965 44.4212 -0.0962375
1 36.9108 39.7613 2.53996
1 38.5576 42.5778 2.53743
1 38.4738 44.5489 -0.132271
1 36.9513 41.7676 -0.139877
1 40.1031 39.9498 2.55145
1 41.643 42.5863 2.45612
1 41.6246 44.3844 -0.181358
1 40.097 41.6821 -0.149425
1 41.6552 37.2374 2.49953
1 43.2038 39.8303 2.52703
1 43.3072 41.7845 -0.0688659
1 41.5769 39.0623 -0.254065
1 44.8597 37.0707 2.39912
1 46.4051 39.7702 2.50733
1 46.5739 41.7697 -0.0790793
1 44.8217 39.0028 -0.176172
1 47.9882 37.1743 2.50572
1 49.5745 39.8886 2.41115
1 49.7449 41.7532 -0.0626872
1 48.0572 38.9832 -0.118925
1 32.1534 48.1646 2.44972
1 32.1099 49.9366 -0.119147
1 33.7222 45.339 2.42901
1 35.2841 48.0172 2.40736
1 35.2524 49.9549 -0.0547183
1 33.6111 47.1287 -0.23008
1 36.8238 45.2505 2.47577
1 38.3741 48.1339 2.53141
1 38.461 49.9213 -0.155209
1 36.8114 47.1659 -0.265951
1 40.0509 45.3481 2.51791
1 41.5341 48.0545 2.53678
1 41.6787 49.9017 -0.0706163
1 40.0337 47.2184 -0.0865707
1 43.2174 45.3321 2.46224
1 44.7957 48.0615 2.49774
1 44.8541 49.8673 -0.131715
1 43.1853 47.1048 -0.0632293
1 44.9193 42.5511 2.46378
1 46.4316 45.333 2.45408
1 46.5108 47.1455 -0.133269
1 44.9188 44.3299 -0.149931
1 48.0137 42.5837 2.58088
1 49.7253 45.3318 2.50506
1 49.6556 47.1951 -0.0862896
1 48.0951 44.4368 -0.160069
1 33.7416 50.8355 2.64994
1 36.8811 50.869 2.48434
1 40.0281 50.9304 2.50654
1 43.165 50.8268 2.555
1 46.5076 50.8949 2.37921
1 47.9939 48.0584 2.38295
1 43.562 32.517 7.94686
1 48.075 29.9697 7.72276
1 46.6086 32.6685 7.7055
1 51.157 29.8102 7.66034
1 49.7299 32.5337 7.61501
1 36.9506 36.3644 5.14601
1 37.0428 37.9057 7.87767
1 40.1168 36.3218 5.18732
1 40.1195 37.9148 7.77113
1 38.503 35.3077 7.8284
1 41.7934 31.7134 2.43505
1 43.2984 36.1389 4.99876
1 43.3021 38.0054 7.70456
1 41.7606 35.2985 7.80952
1 44.8166 33.331 5.15158
1 46.3237 36.1033 5.06746
1 46.3684 38.0017 7.75219
1 44.9157 35.2487 7.81152
1 48.0194 33.4195 5.09468
1 49.6409 36.1973 4.94685
1 49.6174 38.0261 7.56597
1 48.0535 35.3601 7.72274
1 33.9235 41.8268 5.16481
1 33.7873 43.6101 7.72777
1 35.4762 39.1005 5.26437
1 37.054 41.8047 5.12199
1 37.0025 43.4218 7.66419
1 35.5445 40.8458 7.72822
1 38.5258 38.9816 5.19977
1 40.1545 41.6741 5.15519
1 40.2464 43.5407 7.79752
1 38.6075 40.6701 7.73771
1 41.6861 38.925 5.05742
1 43.3154 41.5839 5.02846
1 43.2141 43.4122 7.68417
1 41.7561 40.7048 7.73478
1 44.836 38.8323 5.02086
1 46.4904 41.7419 5.14447
1 46.3456 43.544 7.80849
1 44.8354 40.7386 7.62779
1 48.0035 38.9192 5.08174
1 49.5946 41.744 5.11891
1 49.6011 43.5537 7.68366
1 47.9722 40.8309 7.78091
1 30.7935 47.216 5.25721
1 30.6688 49.1165 7.77996
1 32.2804 44.5112 5.13945
1 33.7645 47.2843 5.03665
1 33.7695 49.0378 7.73143
1 32.2463 46.3296 7.69329
1 35.4033 44.4858 5.04616
1 36.8905 47.1789 5.16192
1 36.8844 49.0154 7.73615
1 35.3029 46.2342 7.72068
1 38.6022 44.4733 5.11747
1 40.0476 47.3362 5.10872
1 40.0046 49.1148 7.78863
1 38.4902 46.3011 7.76837
1 41.6801 44.3402 5.09866
1 43.2552 47.258 5.08814
1 43.1973 49.0557 7.76902
1 41.6508 46.2748 7.75201
1 44.7696 44.4665 5.16334
1 46.4508 47.2147 5.03439
1 46.3833 48.9944 7.72886
1 44.7313 46.2943 7.65321
1 47.8839 44.5431 5.15479
1 49.7009 47.1209 5.06821
1 49.5985 48.9718 7.62246
1 48.0523 46.2419 7.64997
1 32.1792 50.007 5.20668
1 35.4204 50.0446 5.15645
1 38.5746 50.0479 5.11519
1 41.7483 50.0315 5.19678
1 44.8568 49.9271 5.14881
1 47.9854 49.8901 4.97934
1 43.3676 32.5663 12.945
1 46.5817 30.9772 10.3076
1 46.5482 32.3387 12.9384
1 49.6732 30.9159 10.2456
1 49.6826 32.575 12.9637
1 37.0336 36.0113 10.4088
1 36.9865 37.9584 12.9737
1 40.2206 36.065 10.421
1 40.2462 37.9554 13.0221
1 38.5186 35.3166 12.9268
1 41.8522 33.4004 10.386
1 43.242 36.0903 10.424
1 43.4346 37.7962 13.0855
1 41.7743 35.1814 13.0322
1 45.144 33.607 10.3823
1 46.4735 36.1982 10.3636
1 46.5081 37.8639 12.9477
1 44.9665 35.2739 12.9605
1 48.1764 33.5664 10.3215
1 49.7208 36.3207 10.289
1 49.7091 37.9983 13.0078
1 48.1967 35.242 12.9242
1 33.9926 41.7125 10.2824
1 33.711 43.5605 12.9827
1 35.4935 38.8854 10.2971
1 36.9959 41.6864 10.4181
1 36.811 43.4451 12.9956
1 35.3666 40.7125 12.9167
1 38.6012 38.7683 10.3982
1 40.1371 41.565 10.3462
1 40.0743 43.4283 12.9943
1 38.5843 40.707 13.0153
1 41.6867 38.8423 10.3198
1 43.2112 41.6555 10.3383
1 43.2398 43.3402 12.883
1 41.7617 40.6003 12.9469
1 44.8593 38.8463 10.2771
1 46.3663 41.6428 10.3232
1 46.3837 43.3654 12.9732
1 44.9187 40.6422 12.9782
1 48.0974 38.8893 10.2259
1 49.5443 41.7682 10.3199
1 49.6766 43.4584 12.9212
1 48.0663 40.6124 12.902
1 30.6711 47.2318 10.3324
1 30.6302 48.9591 12.9908
1 32.3218 44.5536 10.3815
1 33.7678 47.2235 10.3479
1 33.7072 48.9929 12.9835
1 32.0833 46.2482 12.9972
1 35.4068 44.3989 10.3464
1 36.8523 47.1462 10.4189
1 36.899 49.0407 12.9791
1 35.2464 46.1715 12.97
1 38.5284 44.3475 10.3817
1 40.0092 47.1597 10.4368
1 40.0212 49.0002 12.8926
1 38.4376 46.1671 12.9596
1 41.5958 44.4517 10.3476
1 43.1899 47.182 10.3202
1 43.3024 48.9561 12.9064
1 41.654 46.1035 12.9068
1 44.7965 44.3319 10.338
1 46.3609 47.0022 10.2163
1 46.353 48.9897 12.8848
1 44.8118 46.2234 12.9318
1 47.917 44.2838 10.3222
1 49.5337 47.1337 10.3238
1 49.6697 48.9927 12.9448
1 48.0642 46.1971 12.8661
1 32.2218 49.9622 10.4432
1 35.3318 49.9898 10.4244
1 38.4914 49.8665 10.3649
1 41.6324 49.9357 10.4107
1 44.8402 49.9076 10.2453
1 48.0068 49.833 10.3476
1 43.4253 32.3756 18.235
1 43.4038 30.6648 15.3949
1 46.4869 32.4843 18.1778
1 46.4973 30.7106 15.6623
1 49.7035 32.5852 18.1376
1 37.1135 36.1418 15.6383
1 36.9899 38.085 17.9948
1 40.223 36.1297 15.5989
1 40.1485 38.0788 18.2107
1 38.6186 35.4904 18.3136
1 41.9798 33.4224 15.659
1 43.3302 36.1151 15.6703
1 43.3115 37.9084 18.2078
1 41.6305 35.2164 18.1504
1 44.9845 33.3193 15.5484
1 46.6078 36.1111 15.5317
1 46.4627 37.948 18.2475
1 44.9128 35.0534 18.1406
1 48.1442 33.4825 15.5745
1 49.6499 36.1399 15.6028
1 49.6325 38.0112 18.2802
1 48.1071 35.2674 18.2811
1 33.907 41.7204 15.5986
1 33.7988 43.5319 18.2486
1 35.5714 38.9363 15.5307
1 36.9653 41.7171 15.4916
1 36.9142 43.46 18.2702
1 35.4349 40.8626 18.2675
1 38.6327 38.8936 15.4821
1 40.2008 41.6801 15.6256
1 40.0645 43.4778 18.2305
1 38.4747 40.7251 18.1042
1 41.881 38.8478 15.6514
1 43.4154 41.7059 15.5779
1 43.2798 43.3931 18.163
1 41.7111 40.8229 18.2245
1 45.0009 38.7864 15.6115
1 46.5931 41.5972 15.661
1 46.4636 43.4525 18.052
1 44.8612 40.6658 18.1466
1 48.2312 38.9834 15.6449
1 49.7854 41.5691 15.5185
1 49.6971 43.3877 18.1733
1 48.1341 40.7218 18.2382
1 30.5851 47.1946 15.6598
1 30.6332 49.1203 18.283
1 32.1664 44.4822 15.6718
1 33.6448 47.2307 15.5798
1 33.7012 48.877 18.1384
1 32.1356 46.3138 18.2818
1 35.315 44.4823 15.5551
1 36.8263 47.1771 15.569
1 36.853 49.0084 18.2908
1 35.3063 46.1867 18.1217
1 38.4658 44.4203 15.5157
1 40.053 47.2665 15.5346
1 40.1014 48.9864 18.159
1 38.4733 46.2482 18.2783
1 41.6526 44.4329 15.5748
1 43.2275 47.1288 15.5442
1 43.1962 48.9646 18.1462
1 41.704 46.2044 18.0759
1 44.93 44.3711 15.526
1 46.5147 46.9642 15.4519
1 46.4638 48.8963 18.1683
1 44.8069 46.2212 17.9977
1 48.0178 44.3143 15.5747
1 49.62 47.0485 15.5832
1 49.5504 48.8932 18.2188
1 47.9972 46.0982 18.1362
1 32.1602 49.8859 15.6555
1 35.3069 49.953 15.5539
1 38.4961 49.9673 15.6128
1 41.6612 49.8794 15.5225
1 44.8462 49.9 15.5495
1 47.9387 49.7098 15.5483
1 43.4221 32.4992 23.3024
1 46.7445 30.7652 20.9402
1 46.513 32.5644 23.3709
1 49.8517 30.7439 20.644
1 49.7617 32.3485 23.3659
1 37.2318 36.4095 20.9254
1 36.9812 38.0479 23.4851
1 40.2231 36.2494 20.8167
1 40.1425 38.07 23.4834
1 38.5876 35.4198 23.4771
1 41.7808 33.3609 20.7587
1 43.3795 36.0921 20.6782
1 43.2281 38.0813 23.3731
1 41.7495 35.2979 23.2777
1 44.9759 33.4408 20.8049
1 46.5515 36.1978 20.7738
1 46.5298 37.9265 23.4353
1 44.8328 35.2826 23.3791
1 48.1672 33.4474 20.8088
1 49.729 36.2175 20.9131
1 49.6512 37.9149 23.4914
1 48.0411 35.2302 23.4822
1 33.7484 41.7137 20.8477
1 33.7069 43.4395 23.4271
1 35.4246 38.9464 20.7936
1 36.848 41.7616 20.9281
1 36.9513 43.5081 23.4696
1 35.301 40.6899 23.3852
1 38.5214 39.0154 20.7852
1 40.1118 41.6511 20.7869
1 40.1105 43.4805 23.405
1 38.4804 40.7413 23.4741
1 41.65 38.8835 20.7843
1 43.3236 41.5489 20.7703
1 43.3796 43.5009 23.3936
1 41.7667 40.788 23.4562
1 44.9508 38.8607 20.8375
1 46.4395 41.645 20.7731
1 46.5554 43.4982 23.301
1 44.9299 40.6834 23.4239
1 48.1234 38.9298 20.8643
1 49.5767 41.5599 20.8737
1 49.6769 43.3863 23.4432
1 48.0544 40.7227 23.3711
1 30.7002 47.317 20.8806
1 30.5953 49.0431 23.5062
1 32.2613 44.4616 20.7678
1 33.8312 47.1733 20.7204
1 33.9259 48.9391 23.6261
1 32.2554 46.3796 23.4287
1 35.2824 44.4018 20.9034
1 36.8732 47.1563 20.9659
1 37.046 48.9041 23.4651
1 35.2852 46.1782 23.5338
1 38.4747 44.3921 20.9214
1 39.983 47.1918 20.8262
1 40.0384 48.9398 23.5192
1 38.542 46.1298 23.5553
1 41.6419 44.4295 20.7985
1 43.3176 47.2243 20.7604
1 43.328 48.9871 23.4767
1 41.5742 46.2351 23.3978
1 44.9043 44.3428 20.627
1 46.4728 47.1341 20.7436
1 46.4452 48.8831 23.4164
1 44.8263 46.2488 23.3853
1 48.0691 44.257 20.7778
1 49.5683 47.0233 20.9043
1 49.5998 48.9285 23.4439
1 48.1818 46.1717 23.4593
1 32.3748 49.8132 20.75
1 35.4244 49.8696 20.8816
1 38.5633 49.8369 20.88
1 41.7998 49.9114 20.7633
1 44.895 49.8686 20.7913
1 48.0502 49.8062 20.8933
1 43.3502 30.6092 26.0686
1 46.4152 30.7649 25.7741
1 37.1861 36.2311 26.0739
1 40.2626 36.2455 25.9672
1 41.9264 33.5015 25.9591
1 43.4088 36.1634 25.9911
1 44.9381 33.3945 25.9563
1 46.4273 36.1191 26.03
1 48.0623 33.3798 25.9384
1 49.6251 36.0942 26.0622
1 34.0047 41.7602 26.055
1 35.4603 38.8862 26.1074
1 36.9467 41.7104 26.0596
1 38.5512 39.0172 26.1093
1 40.1578 41.6205 26.0292
1 41.7244 38.9491 26.0657
1 43.3556 41.7098 26.1159
1 44.9263 38.8753 26.0541
1 46.4172 41.6305 26.1162
1 48.1248 38.9558 26.0381
1 49.6512 41.575 26.1026
1 30.7205 47.1986 26.0216
1 32.4854 44.4836 25.8505
1 33.7928 47.0755 26.0929
1 35.4417 44.4303 26.1317
1 36.9185 47.1108 26.0721
1 38.5951 44.2987 26.0502
1 40.2011 47.1063 26.0483
1 41.721 44.424 25.9713
1 43.3081 47.1254 26.0087
1 44.8146 44.3864 26.0236
1 46.5091 47.1 25.9914
1 48.0868 44.3645 25.9674
1 49.7468 47.1331 26.0264
1 32.3448 49.835 26.0756
1 35.4807 49.7856 26.1519
1 38.5641 49.7948 26.0845
1 41.6572 49.8904 26.0469
1 44.8838 49.8418 26.0718
1 48.0653 49.8211 25.9886
1 43.4728 32.4573 28.5991
1 46.5703 32.3124 28.4527
1 49.7527 32.5551 28.5872
1 37.2248 38.0123 28.662
1 40.2194 37.9941 28.6221
1 38.8373 35.3457 28.6089
1 43.4655 37.9659 28.7117
1 41.9274 35.2903 28.6674
1 46.4952 37.9479 28.6769
1 44.9819 35.0501 28.687
1 49.5717 37.9849 28.7333
1 48.0258 35.2167 28.5791
1 33.7721 43.3662 28.8281
1 36.9462 43.4694 28.6659
1 35.5045 40.7033 28.683
1 40.1246 43.498 28.749
1 38.6199 40.7426 28.6659
1 43.2431 43.4836 28.6277
1 41.7434 40.6988 28.6252
1 46.43 43.4713 28.6769
1 44.8732 40.6357 28.6211
1 49.6755 43.4207 28.6989
1 48.0119 40.662 28.7457
1 30.8151 48.8683 28.7308
1 33.8548 48.806 28.6904
1 32.0793 46.1328 28.6909
1 36.9717 48.8879 28.8694
1 35.4323 46.1565 28.7603
1 40.1554 48.8364 28.6662
1 38.5207 46.1539 28.6726
1 43.3426 48.9999 28.6061
1 41.6915 46.1766 28.7155
1 46.458 48.9113 28.7195
1 44.7852 46.2443 28.605
1 49.5722 48.9466 28.6215
1 48.0092 46.1989 28.6284
1 43.3423 32.6335 33.9591
1 46.5087 30.7091 31.2402
1 46.5343 32.4284 33.954
1 49.6823 30.7516 31.0113
1 49.6558 32.3584 33.7947
1 37.2408 36.1774 31.323
1 36.9658 37.9266 33.9002
1 40.1816 36.2025 31.351
1 40.1226 37.9721 33.945
1 38.67 35.2547 33.9784
1 41.7871 33.5096 31.2599
1 43.3496 36.1324 31.3916
1 43.2796 38.0095 34.0368
1 41.7927 35.2222 34.0058
1 44.7873 33.3111 31.2684
1 46.4292 36.1988 31.3119
1 46.4503 37.9651 33.9099
1 45.0082 35.2121 34.0108
1 48.0944 33.3965 31.184
1 49.6139 36.1211 31.2649
1 49.5852 37.9391 33.9215
1 48.0574 35.1106 33.8238
1 33.7934 41.5141 31.4075
1 33.7703 43.2552 33.9825
1 35.5641 38.9032 31.2269
1 36.9114 41.6111 31.2851
1 36.8983 43.3215 33.9621
1 35.3617 40.614 33.9411
1 38.5576 38.9578 31.4187
1 40.0766 41.6423 31.2806
1 40.1354 43.3466 33.9747
1 38.5308 40.6424 33.9985
1 41.7274 38.9211 31.3606
1 43.3076 41.6055 31.2026
1 43.2662 43.6207 33.7971
1 41.6379 40.7429 33.9021
1 44.8931 39.011 31.3873
1 46.4067 41.6006 31.3837
1 46.4362 43.5836 33.8755
1 44.8071 40.836 33.9257
1 48.0042 38.9063 31.4427
1 49.5994 41.4886 31.2995
1 49.5744 43.4672 33.9209
1 47.94 40.6915 33.955
1 30.5968 47.2088 31.3463
1 30.7071 48.9496 33.9793
1 32.2324 44.3612 31.3979
1 33.6652 47.0627 31.3241
1 33.7659 48.9089 33.9635
1 32.1888 46.2302 33.9762
1 35.3601 44.3545 31.3613
1 36.8493 47.0192 31.3722
1 36.9507 48.8736 34.0126
1 35.2809 46.1413 33.9844
1 38.3842 44.3056 31.2589
1 39.9661 47.1267 31.3473
1 40.0839 48.9462 33.9788
1 38.4949 46.0915 33.9985
1 41.719 44.5049 31.3052
1 43.2691 47.165 31.3426
1 43.3226 49.0866 33.8603
1 41.6704 46.3035 33.8881
1 44.8795 44.3853 31.2841
1 46.4716 47.2096 31.3317
1 46.4929 49.1108 33.9374
1 44.8773 46.3017 33.8904
1 48.1351 44.4445 31.2227
1 49.6454 47.2171 31.2814
1 49.5737 48.963 33.8201
1 48.0561 46.2659 33.8734
1 32.1296 49.8536 31.4056
1 35.2243 49.7881 31.3449
1 38.5075 49.8171 31.4251
1 41.621 49.8465 31.3156
1 44.9662 50.0008 31.3465
1 48.0409 49.9623 31.2818
1 43.4624 32.3807 39.309
1 43.3165 30.8985 36.5904
1 46.5286 32.5699 39.1599
1 46.4764 30.777 36.6157
1 49.654 32.5334 39.2952
1 37.2287 36.2118 36.549
1 37.0642 37.9905 39.2064
1 40.1497 36.1642 36.6331
1 40.1572 38.0287 39.2018
1 38.6795 35.4835 39.2238
1 41.7445 33.5079 36.6958
1 43.3104 36.2128 36.6114
1 43.3484 38.0719 39.2486
1 41.8113 35.3032 39.2883
1 44.8645 33.4213 36.6153
1 46.421 36.1652 36.5472
1 46.5486 38.0146 39.1707
1 44.9164 35.3088 39.2785
1 48.0398 33.3918 36.5116
1 49.605 36.1387 36.462
1 49.7357 37.946 39.1359
1 48.1321 35.2085 39.0294
1 33.961 41.6686 36.6406
1 33.7684 43.4208 39.2011
1 35.5008 38.9919 36.6103
1 36.9617 41.6696 36.5659
1 36.8573 43.4328 39.1142
1 35.4796 40.6851 39.1633
1 38.6431 38.9231 36.472
1 40.0881 41.6931 36.5536
1 40.1383 43.6132 39.2483
1 38.5239 40.6626 39.2
1 41.7458 38.953 36.5613
1 43.2004 41.7748 36.4981
1 43.3498 43.634 39.1569
1 41.7085 40.881 39.1135
1 44.899 39 36.5872
1 46.4025 41.6801 36.5488
1 46.4792 43.5051 39.2104
1 44.9546 40.8619 39.139
1 47.948 38.8549 36.5873
1 49.493 41.5695 36.5088
1 49.5546 43.5212 39.1537
1 48.0257 40.7482 39.1596
1 30.8607 47.3384 36.64
1 30.6459 49.0753 39.1999
1 32.3304 44.3973 36.5896
1 33.7397 47.1172 36.6186
1 33.6223 49.0495 39.1525
1 32.1143 46.3351 39.2336
1 35.2999 44.3321 36.616
1 36.7822 47.0562 36.5822
1 36.9065 49.0021 39.1265
1 35.1864 46.2838 39.3187
1 38.4905 44.3601 36.5359
1 40.0826 47.0463 36.6302
1 40.0755 48.9394 39.1632
1 38.5088 46.1229 39.1201
1 41.6897 44.4274 36.4598
1 43.271 47.1758 36.524
1 43.2584 49.0502 39.2521
1 41.7697 46.2331 39.1712
1 44.8608 44.4217 36.4587
1 46.4258 47.1697 36.4404
1 46.4442 48.9723 39.1999
1 44.9871 46.2706 39.0596
1 48.0639 44.3474 36.5583
1 49.6251 47.0541 36.6057
1 49.7374 49.0519 39.1229
1 48.0377 46.2902 39.2016
1 32.2348 49.9085 36.5124
1 35.2437 49.7842 36.5724
1 38.4568 49.8704 36.53
1 41.656 49.9121 36.6149
1 44.8016 49.9683 36.4699
1 48.0199 49.8609 36.585
1 46.5432 30.8531 41.7756
1 49.6531 30.7227 41.6834
1 37.1154 36.3152 41.926
1 40.1784 36.2141 41.9487
1 41.954 33.4414 41.9316
1 43.3657 36.1869 41.9329
1 44.9199 33.4475 41.8445
1 46.5033 36.1559 41.8693
1 48.0891 33.515 41.7463
1 49.6559 36.2307 41.6678
1 34.0186 41.7901 41.8687
1 35.453 39.0391 41.845
1 37.0514 41.7779 41.7199
1 38.531 39.0252 41.7505
1 40.2584 41.749 41.7684
1 41.7873 38.9928 41.7158
1 43.3881 41.7565 41.8186
1 44.96 38.9676 41.7567
1 46.5284 41.7912 41.8187
1 48.0958 38.9216 41.795
1 49.6136 41.6945 41.7509
1 30.7345 47.2284 41.8696
1 32.3844 44.4124 41.7682
1 33.7062 47.2188 41.8526
1 35.4279 44.5015 41.8581
1 36.9412 47.1775 41.8076
1 38.5531 44.3982 41.7597
1 40.1306 47.1729 41.7513
1 41.7381 44.431 41.8223
1 43.3878 47.1886 41.778
1 44.9199 44.5408 41.8326
1 46.4826 47.1666 41.8514
1 48.0937 44.4597 41.7667
1 49.7967 47.2537 41.8595
1 32.1054 49.9547 41.9111
1 35.3324 49.9354 41.8127
1 38.5078 49.9496 41.7864
1 41.6872 50.0221 41.822
1 44.8748 49.9199 41.7316
1 48.0819 50.0003 41.7379
1 43.4644 32.6223 44.6079
1 46.631 32.5977 44.4073
1 49.7624 32.5343 44.3046
1 37.128 38.1059 44.4281
1 40.1933 38.0263 44.3344
1 38.6608 35.3333 44.5525
1 43.4489 37.94 44.476
1 41.8401 35.2115 44.5076
1 46.6105 37.9896 44.5232
1 45.0645 35.1372 44.5194
1 49.7089 37.9396 44.3733
1 48.2455 35.2755 44.3297
1 33.7652 43.581 44.5277
1 36.8943 43.5049 44.4537
1 35.4726 40.7609 44.4446
1 40.0536 43.5896 44.4533
1 38.552 40.7664 44.2689
1 43.3613 43.4926 44.3782
1 41.7496 40.7666 44.4882
1 46.4927 43.5549 44.4506
1 44.9359 40.7049 44.3908
1 49.6712 43.4779 44.3431
1 48.1328 40.7135 44.3656
1 30.748 49.0627 44.6044
1 33.7274 48.9771 44.4909
1 32.1133 46.2272 44.4886
1 36.9409 49.0746 44.4407
1 35.2463 46.3601 44.4006
1 40.1146 49.0508 44.4354
1 38.4789 46.3268 44.3846
1 43.3084 49.0209 44.3615
1 41.8464 46.3428 44.4245
1 46.4857 49.0229 44.439
1 44.8852 46.2215 44.3766
1 49.7729 49.015 44.3735
1 48.1074 46.2178 44.3926
1 43.3631 32.6441 49.6134
1 46.5584 30.7661 47.0382
1 46.6271 32.5012 49.6966
1 49.6679 30.8289 47.0017
1 49.9023 32.4512 49.5127
1 37.1206 36.3312 47.1126
1 37.17 38.0111 49.5904
1 40.261 36.2729 47.1165
1 40.3726 38.1204 49.6141
1 38.7925 35.3888 49.6496
1 41.7487 33.5223 47.1854
1 43.428 36.1992 47.1062
1 43.4582 38.0242 49.6686
1 41.8565 35.4095 49.706
1 45.0032 33.5643 47.1203
1 46.6778 36.2433 47.023
1 46.6583 38.0026 49.6298
1 45.0545 35.3212 49.6774
1 48.2198 33.4109 47.0189
1 49.7925 36.0891 47.0842
1 49.626 37.9546 49.6392
1 48.2648 35.1319 49.5865
1 33.908 41.7517 47.0021
1 33.9791 43.5891 49.6169
1 35.4237 38.9348 47.0777
1 37.1059 41.6906 47.0541
1 36.9936 43.453 49.7001
1 35.4626 40.7915 49.5682
1 38.5979 38.9695 46.9374
1 40.1482 41.7142 47.1189
1 40.1982 43.4015 49.6495
1 38.5419 40.7761 49.7328
1 41.8062 38.9586 47.0795
1 43.404 41.6072 47.0057
1 43.3252 43.396 49.6322
1 41.8175 40.7432 49.7207
1 45.0407 39.0286 46.9929
1 46.574 41.7247 47.004
1 46.4993 43.4951 49.6336
1 45.0674 40.7332 49.6347
1 48.2454 39.0154 47.0335
1 49.7111 41.7191 46.8979
1 49.7496 43.5413 49.6074
1 48.2127 40.7137 49.5653
1 30.827 47.1604 47.1798
1 30.7353 49.1169 49.7898
1 32.4028 44.456 47.1226
1 33.9159 47.1932 47.1
1 33.8183 49.0687 49.7585
1 32.3315 46.337 49.7759
1 35.477 44.5193 47.035
1 37.0457 47.2774 46.9448
1 36.9298 49.0857 49.5443
1 35.4451 46.3295 49.7172
1 38.5548 44.5111 47.0638
1 40.1987 47.1319 47.0215
1 40.1665 49.0277 49.7225
1 38.7501 46.2697 49.6016
1 41.8445 44.5137 47.0617
1 43.4337 47.2456 47.0025
1 43.4236 48.9966 49.5939
1 41.8135 46.3203 49.5507
1 44.9267 44.3629 47.0357
1 46.4723 47.2038 46.9456
1 46.5538 49.0134 49.5454
1 44.9426 46.2051 49.6353
1 48.0984 44.4545 47.0054
1 49.8026 47.2305 47.0371
1 49.7122 49.0416 49.6077
1 48.1108 46.2574 49.5529
1 32.2594 49.9394 47.129
1 35.3279 50.0342 47.0197
1 38.6371 50.0209 47.0846
1 41.7217 49.8882 47.0488
1 44.9621 49.9794 47.0262
1 48.1269 49.9718 46.9262
1 43.5971 32.651 54.7343
1 53.1513 30.8135 52.45
1 46.6793 32.7775 54.8372
1 56.2328 30.9734 52.3226
1 49.8462 32.5906 54.9918
1 37.2882 36.1641 52.2592
1 37.0845 38.0687 54.8806
1 40.4466 36.2253 52.3329
1 40.2129 38.0059 54.9266
1 38.829 35.4034 54.9277
1 42.0394 33.5768 52.2967
1 43.512 36.1817 52.3076
1 43.3351 37.9734 54.9462
1 41.8695 35.3467 54.8418
1 45.1049 33.4747 52.1891
1 46.6502 36.195 52.2153
1 46.6886 38.073 54.9157
1 45.056 35.462 54.8977
1 48.248 33.5572 52.2935
1 49.7846 36.2208 52.3105
1 49.9169 38.0675 54.9747
1 48.2478 35.3636 54.9475
1 34.0971 41.7922 52.2837
1 33.9149 43.448 54.992
1 35.8519 39.054 52.2354
1 37.1203 41.8024 52.3778
1 37.0986 43.4903 54.8913
1 35.5181 40.8309 54.9316
1 38.8112 38.7737 52.3183
1 40.2919 41.6091 52.3242
1 40.2252 43.3826 54.8838
1 38.6593 40.7689 55.0268
1 41.9314 38.9354 52.3345
1 43.3738 41.6385 52.3631
1 43.4528 43.5357 54.9648
1 41.7966 40.5716 54.9618
1 45.059 38.9912 52.2194
1 46.5373 41.7245 52.3374
1 46.5137 43.571 54.855
1 45.035 40.7222 54.9328
1 48.2326 38.9259 52.3057
1 49.6958 41.6865 52.2692
1 49.7045 43.5955 54.8981
1 48.1378 40.8696 54.9539
1 30.8687 47.4419 52.3399
1 30.7176 49.084 54.9911
1 32.4363 44.504 52.2025
1 33.9289 47.1867 52.3333
1 33.8612 48.9798 54.9224
1 32.296 46.3439 54.8093
1 35.4566 44.435 52.3513
1 37.0528 47.1518 52.2306
1 37.0324 48.9546 54.8713
1 35.4632 46.1609 54.9618
1 38.6415 44.3396 52.2552
1 40.1885 47.0847 52.311
1 40.2027 48.927 54.9088
1 38.623 46.13 54.8765
1 41.7663 44.3997 52.2689
1 43.2986 47.1861 52.2631
1 43.3587 49.0225 54.7186
1 41.6976 46.2317 54.8591
1 44.8382 44.4132 52.2677
1 46.5463 47.2191 52.2494
1 46.5174 49.0129 54.7579
1 44.9097 46.2346 54.8169
1 48.1816 44.4859 52.1824
1 49.6994 47.1783 52.2778
1 49.714 48.9286 54.8845
1 48.0921 46.2783 54.8961
1 32.4477 49.8015 52.3237
1 35.5357 49.8898 52.2573
1 38.7017 49.8756 52.3023
1 41.8825 49.8929 52.1088
1 45.0393 49.9167 52.1881
1 48.08 49.9404 52.199
1 43.5162 32.5034 60.0833
1 46.7439 30.8727 57.3542
1 46.7221 32.3946 60.1152
1 49.8677 30.9611 57.5339
1 49.7788 32.5419 60.2174
1 37.163 36.1907 57.4212
1 37.0844 38.0494 60.191
1 40.2844 36.1606 57.584
1 40.2576 38.0792 60.1102
1 38.7181 35.391 60.2803
1 42.1337 33.6681 57.393
1 43.4343 36.3121 57.4905
1 43.4535 38.0613 60.1644
1 41.8419 35.2953 60.0834
1 45.0206 33.4824 57.4874
1 46.5894 36.2822 57.5282
1 46.5239 38.0329 60.0312
1 44.9477 35.2841 60.0624
1 48.1984 33.561 57.558
1 49.7952 36.3131 57.5431
1 49.7273 38.1031 60.1554
1 48.1482 35.2638 60.1498
1 33.9202 41.8496 57.6353
1 33.994 43.6334 60.23
1 35.5867 38.905 57.5432
1 37.0641 41.7452 57.6376
1 37.034 43.5928 60.262
1 35.5306 40.8706 60.1883
1 38.6019 38.8157 57.5255
1 40.223 41.7107 57.6092
1 40.1474 43.5695 60.2136
1 38.6454 40.7432 60.1172
1 41.8055 38.9063 57.5718
1 43.3084 41.7155 57.5583
1 43.3819 43.6006 60.2115
1 41.766 40.7473 60.1647
1 44.9516 39.0466 57.509
1 46.5089 41.7777 57.534
1 46.6373 43.6553 60.1535
1 44.9093 40.8243 60.1273
1 48.1142 39.0357 57.5184
1 49.604 41.7183 57.5898
1 49.6769 43.4865 60.1396
1 47.9746 40.8435 60.2835
1 30.7211 47.2054 57.4563
1 30.7608 49.142 60.0541
1 32.4164 44.5794 57.5029
1 33.8589 47.2223 57.4404
1 33.8296 48.9489 60.0887
1 32.2715 46.3477 60.0564
1 35.4556 44.466 57.4438
1 37.0071 47.216 57.5041
1 37.1487 49.1734 60.1881
1 35.5461 46.3606 60.0211
1 38.5943 44.4658 57.7203
1 40.0819 47.1518 57.5198
1 40.1924 49.1183 60.1779
1 38.5932 46.3947 60.2712
1 41.6759 44.455 57.5333
1 43.3968 47.3311 57.4244
1 43.3765 49.161 60.0812
1 41.7306 46.4081 60.1479
1 44.8891 44.4972 57.5444
1 46.4343 47.299 57.4696
1 46.5644 49.1304 59.9613
1 44.9639 46.3699 60.0211
1 48.0544 44.4697 57.5782
1 49.7079 47.1482 57.511
1 49.7861 49.2169 60.1179
1 48.2221 46.4028 60.1198
1 32.3694 49.8234 57.4513
1 35.5605 49.9407 57.5044
1 38.6555 49.9483 57.5694
1 41.8974 50.0685 57.4702
1 45.0054 50.0259 57.3895
1 48.1059 49.9434 57.4623
1 43.4393 32.7188 65.3249
1 46.4207 31.0546 62.8744
1 46.678 32.7367 65.4524
1 49.8703 30.9835 62.9715
1 49.8725 32.6157 65.5768
1 37.1378 36.2981 62.8097
1 36.979 38.1136 65.3384
1 40.2285 36.2941 62.626
1 40.166 38.0955 65.4594
1 38.6093 35.547 65.3489
1 41.857 33.5716 62.6538
1 43.4116 36.2931 62.7517
1 43.3835 38.0359 65.3603
1 41.6812 35.1999 65.3849
1 45.0779 33.7086 62.7255
1 46.6559 36.2238 62.743
1 46.6343 38.0368 65.3789
1 44.9402 35.4288 65.3685
1 48.2034 33.5857 62.7987
1 49.7917 36.3413 62.7646
1 49.8057 38.1079 65.4025
1 48.1897 35.328 65.4035
1 33.9508 41.9098 62.8259
1 33.8498 43.7048 65.4439
1 35.5768 39.157 62.7065
1 37.0447 41.8386 62.8225
1 36.9671 43.5867 65.4141
1 35.3769 40.9135 65.4015
1 38.6663 39.0471 62.8036
1 40.1964 41.6752 62.7612
1 40.2592 43.5286 65.3983
1 38.5836 40.8184 65.3923
1 41.8418 38.9604 62.7579
1 43.4145 41.7181 62.7557
1 43.4459 43.5637 65.2363
1 41.9199 40.7162 65.3926
1 45.0718 38.9753 62.6545
1 46.4217 41.7541 62.8117
1 46.5967 43.5498 65.2938
1 44.9921 40.7175 65.4009
1 48.1548 38.959 62.8126
1 49.5884 41.7103 62.8579
1 49.7064 43.4935 65.3708
1 48.1634 40.7296 65.3777
1 30.7503 47.2336 62.6774
1 30.7715 48.9941 65.3578
1 32.2958 44.6117 62.7207
1 33.8128 47.2434 62.6776
1 33.8619 49.0773 65.2758
1 32.3118 46.4222 65.3735
1 35.4434 44.6655 62.7457
1 36.985 47.3071 62.6941
1 37.0074 49.1213 65.3362
1 35.448 46.3694 65.2769
1 38.6688 44.4289 62.8117
1 40.1485 47.307 62.7996
1 40.1329 49.0028 65.3288
1 38.577 46.2922 65.4274
1 41.7747 44.4076 62.8226
1 43.2817 47.2738 62.7093
1 43.3057 49.1256 65.3205
1 41.734 46.2503 65.2427
1 44.8716 44.602 62.6546
1 46.4588 47.2819 62.7086
1 46.4514 49.1817 65.2735
1 44.9782 46.3551 65.3793
1 48.0112 44.5236 62.7361
1 49.7197 47.2604 62.6471
1 49.6602 49.1455 65.1781
1 48.0972 46.4186 65.2926
1 32.3171 50.0288 62.7238
1 35.3904 50.0199 62.7318
1 38.6374 50.1118 62.8145
1 41.8272 49.9578 62.7727
1 44.9569 49.9688 62.7253
1 48.0661 50.0543 62.7052
1 43.552 32.7059 70.6935
1 46.7019 30.9475 68.1596
1 46.7624 32.6167 70.7764
1 49.8236 30.8592 68.0149
1 49.8142 32.5351 70.7161
1 37.0259 36.3769 67.8976
1 37.1493 38.2206 70.5414
1 40.1877 36.2934 67.9909
1 40.1066 38.218 70.6381
1 38.6361 35.5947 70.6987
1 41.9644 33.5674 68.0155
1 43.3737 36.2273 67.961
1 43.3804 38.1268 70.5986
1 41.8268 35.364 70.7348
1 45.0673 33.5117 68.0212
1 46.5497 36.2871 68.0735
1 46.5643 38.0786 70.6761
1 44.9336 35.2653 70.5812
1 48.2315 33.5363 68.1228
1 49.7419 36.2638 68.0205
1 49.7633 38.0398 70.6145
1 48.1321 35.3597 70.7012
1 33.8094 41.8336 68.1252
1 33.9011 43.5959 70.6592
1 35.5241 39.0534 67.9769
1 37.0447 41.7277 67.9718
1 37.0633 43.7015 70.6793
1 35.5512 40.9777 70.5621
1 38.6386 38.9445 67.9623
1 40.2081 41.6644 68.0328
1 40.2309 43.5959 70.575
1 38.5969 40.8619 70.6291
1 41.7795 38.996 67.9784
1 43.3346 41.7449 67.9168
1 43.3847 43.5221 70.5774
1 41.8317 40.8589 70.5496
1 44.9661 38.9581 68.0102
1 46.5711 41.6803 67.8734
1 46.513 43.5709 70.6127
1 45.0688 40.9689 70.569
1 48.1782 38.9734 67.9973
1 49.7358 41.7202 68.063
1 49.6341 43.5826 70.5739
1 48.2227 40.7929 70.5983
1 30.6966 47.42 67.863
1 30.708 49.1253 70.6884
1 32.3309 44.674 68.0068
1 33.7377 47.3267 67.9731
1 33.8536 49.1038 70.6081
1 32.3195 46.4863 70.6054
1 35.3625 44.5026 68.0619
1 37.0485 47.253 67.8951
1 36.8859 49.1193 70.655
1 35.3628 46.3927 70.61
1 38.6333 44.4625 67.9883
1 40.2573 47.3031 67.9684
1 40.1146 49.1376 70.4842
1 38.5842 46.3916 70.5837
1 41.7456 44.53 67.9342
1 43.4128 47.331 67.8856
1 43.2971 49.0491 70.5195
1 41.837 46.3671 70.4812
1 44.9652 44.5171 67.8957
1 46.5901 47.3045 67.9174
1 46.4939 49.0845 70.5074
1 44.9879 46.2205 70.5504
1 48.0781 44.4832 67.8806
1 49.6844 47.1885 67.9948
1 49.741 48.995 70.5925
1 48.1047 46.2842 70.4373
1 32.3066 50.064 67.9862
1 35.3987 50.0252 67.984
1 38.6192 49.9951 67.92
1 41.8077 50.0454 67.9383
1 44.9744 50.0179 67.9483
1 48.0621 50.1029 67.9274
1 43.5069 32.7163 75.899
1 46.7224 30.8662 73.1995
1 46.6211 32.6357 75.8024
1 49.739 30.9837 73.5442
1 49.713 32.6268 76.075
1 36.999 36.2449 73.1849
1 37.0217 37.9611 75.7704
1 40.1544 36.3121 73.2366
1 40.1255 37.938 75.9025
1 38.6586 35.2633 75.8352
1 42.0217 33.5537 73.2506
1 43.4101 36.2607 73.2973
1 43.3485 38.0327 75.9374
1 41.9056 35.3324 75.8484
1 45.1906 33.4832 73.2579
1 46.6038 36.2235 73.3003
1 46.574 37.9876 75.8283
1 44.9883 35.312 75.8425
1 48.3075 33.5619 73.3017
1 49.7264 36.2741 73.2908
1 49.5917 38.0505 75.8045
1 48.1111 35.2616 75.9842
1 33.8713 41.7968 73.2326
1 33.7863 43.5046 75.9466
1 35.559 39.0375 73.0903
1 36.8896 41.659 73.2686
1 36.8707 43.5235 75.8049
1 35.2626 40.6285 75.8202
1 38.5964 38.9186 73.2976
1 40.0777 41.6763 73.0656
1 40.1364 43.4733 75.7518
1 38.5007 40.7261 75.8002
1 41.8297 38.9385 73.2521
1 43.4842 41.6554 73.1385
1 43.2379 43.4431 75.7766
1 41.6667 40.7047 75.8798
1 44.9921 38.9796 73.2404
1 46.5277 41.7952 73.1908
1 46.4354 43.4585 75.9333
1 44.8342 40.7059 75.8036
1 48.2204 39.0001 73.2129
1 49.6522 41.7885 73.1401
1 49.525 43.5984 75.7327
1 48.0564 40.7738 75.7682
1 30.6746 47.292 73.2226
1 30.6305 49.1172 75.8486
1 32.2174 44.5318 73.3206
1 33.7194 47.2828 73.2368
1 33.6619 49.094 75.8887
1 32.1053 46.289 75.8539
1 35.247 44.4969 73.3087
1 36.9124 47.2045 73.2675
1 36.9616 48.9731 75.8986
1 35.2938 46.2919 75.7986
1 38.4696 44.383 73.3475
1 40.0447 47.2308 73.2921
1 39.9886 48.9919 75.9102
1 38.4618 46.2651 75.8423
1 41.6984 44.5054 73.1677
1 43.396 47.0953 73.2225
1 43.1322 48.9639 75.7124
1 41.5698 46.1728 75.835
1 44.9375 44.4815 73.2633
1 46.5005 47.333 73.1096
1 46.3589 49.0888 75.9704
1 44.9097 46.2237 75.9126
1 48.015 44.561 73.0957
1 49.7079 47.2011 73.268
1 49.5569 49.1662 75.8497
1 47.9583 46.4024 75.8069
1 32.2259 49.9086 73.1682
1 35.3579 49.9382 73.257
1 38.533 49.9646 73.1849
1 41.6935 49.9156 73.094
1 44.8426 49.9324 73.1532
1 48.0389 50.0226 73.2176
1 43.4721 32.5375 80.9122
1 46.78 31.0548 78.5655
1 46.5635 32.7607 81.1882
1 49.8336 30.7713 78.6617
1 49.595 32.6335 81.0909
1 37.0223 36.1192 78.2846
1 36.9364 37.9844 80.9795
1 40.1302 36.3075 78.4929
1 40.115 38.039 81.1075
1 38.5517 35.3889 81.152
1 41.9395 33.6384 78.4666
1 43.3424 36.2863 78.4572
1 43.2893 38.0935 81.195
1 41.739 35.249 81.0953
1 45.108 33.6178 78.4919
1 46.5199 36.2406 78.5111
1 46.4818 38.0817 81.1145
1 44.8355 35.3605 81.111
1 48.2069 33.6511 78.5114
1 49.6583 36.3229 78.424
1 49.5893 38.115 81.0837
1 48.078 35.4076 81.2083
1 33.8274 41.8317 78.5103