5538
Atoms. Timestep: 90000
1 43.1664 30.8133 -0.220781
1 46.4195 30.7905 5.21264
1 46.2901 30.7418 -0.0607591
1 49.5503 30.6911 5.14919
1 49.5266 30.6406 -0.0879073
1 38.3781 37.0454 2.58983
1 38.5172 39.1107 -0.150188
1 40.0829 34.4879 2.3965
1 39.9093 36.3153 -0.159046
1 38.4883 33.7374 -0.139725
1 40.0783 31.1802 -0.411433
1 43.2076 34.4755 2.36939
1 43.3053 36.2962 -0.247925
1 41.7767 33.6771 -0.194408
1 44.8286 31.7012 2.55505
1 46.226 34.3184 2.54284
1 46.3705 36.1515 -0.103129
1 44.8121 33.4157 -0.148047
1 47.9139 31.5413 2.56432
1 49.5978 34.3422 2.55272
1 49.6446 36.0497 -0.034815
1 47.9289 33.3756 -0.0913887
1 35.3631 42.5442 2.42311
1 35.4131 44.4452 -0.104192
1 36.8907 39.9785 2.45739
1 38.6336 42.5593 2.42925
1 38.6055 44.4474 -0.133108
1 36.952 41.8002 -0.269757
1 39.9532 39.8281 2.40757
1 41.6753 42.6165 2.41586
1 41.8252 44.3448 -0.294597
1 40.0591 41.7353 -0.257722
1 41.6275 37.1181 2.44661
1 43.2965 39.7952 2.42408
1 43.3159 41.5694 -0.113482
1 41.6293 38.9303 -0.0241456
1 44.8009 37.1622 2.41072
1 46.4555 39.8345 2.61026
1 46.4826 41.7369 -0.0330965
1 44.8184 38.963 -0.242731
1 47.9508 37.0821 2.46022
1 49.5846 39.7441 2.44415
1 49.536 41.5642 -0.194808
1 48.0912 38.818 -0.235743
1 32.1929 48.1752 2.48298
1 32.2249 49.9606 -0.336187
1 33.6956 45.2209 2.50197
1 35.3163 48.1479 2.46831
1 35.2987 49.8957 -0.183244
1 33.7965 47.226 -0.187771
1 36.9253 45.3793 2.45253
1 38.4083 48.1601 2.45722
1 38.5204 49.9872 -0.157734
1 36.9598 47.1196 -0.127168
1 40.0555 45.3131 2.33343
1 41.624 47.9396 2.45403
1 41.5934 50.0527 -0.102889
1 40.112 47.2457 -0.186966
1 43.3022 45.2378 2.39152
1 44.7036 48.0119 2.43888
1 44.7727 49.9561 -0.135201
1 43.2979 47.111 -0.256769
1 44.9403 42.4428 2.48956
1 46.4696 45.2751 2.39987
1 46.4062 47.1336 -0.117352
1 44.8257 44.3002 -0.219297
1 48.0612 42.5965 2.47541
1 49.652 45.3082 2.50454
1 49.6701 47.118 -0.151122
1 47.9992 44.4499 -0.163723
1 33.7425 50.8728 2.37712
1 36.9102 50.9066 2.52151
1 40.0633 50.9895 2.41169
1 43.2297 50.9464 2.34695
1 46.3711 50.8342 2.47746
1 47.945 48.0199 2.5144
1 43.4303 32.562 7.93797
1 47.9159 29.7992 7.61467
1 46.4764 32.5815 7.64139
1 51.0488 29.6873 7.67879
1 49.5572 32.4022 7.69083
1 36.9852 36.3121 5.31804
1 36.9211 37.9872 7.88617
1 40.0545 36.2923 5.13951
1 40.0558 37.9297 7.71128
1 38.5845 35.3815 7.81995
1 41.5419 31.7345 2.18815
1 43.2089 36.0891 5.0987
1 43.2321 37.8189 7.71385
1 41.649 35.1616 7.871
1 44.7417 33.4495 5.07453
1 46.3937 36.0885 5.04381
1 46.5379 38.0321 7.64974
1 44.8475 35.3134 7.68037
1 48.0123 33.3701 5.13249
1 49.5519 36.0355 5.13952
1 49.6233 37.9893 7.73075
1 47.9241 35.216 7.67084
1 33.9032 41.7281 5.41525
1 33.9117 43.5035 7.8866
1 35.5309 38.9494 5.2704
1 36.9225 41.6197 5.12293
1 36.9234 43.4461 7.69356
1 35.2744 40.6167 7.81245
1 38.5074 38.9711 5.13114
1 40.0261 41.6845 5.02095
1 39.9955 43.3234 7.67694
1 38.4317 40.619 7.71036
1 41.6824 38.9451 5.06946
1 43.2115 41.622 5.03359
1 43.1332 43.3925 7.61912
1 41.5267 40.6384 7.59829
1 44.8159 38.7872 5.09449
1 46.4277 41.5588 5.07328
1 46.4276 43.4679 7.66341
1 44.7877 40.7054 7.68024
1 48.0253 38.8318 5.07903
1 49.6082 41.6407 5.05974
1 49.5857 43.5189 7.63812
1 47.9757 40.7057 7.71213
1 30.8445 47.2568 5.16378
1 30.8605 49.0356 7.71303
1 32.3029 44.441 5.31243
1 33.7671 47.1123 5.00134
1 33.8288 48.9715 7.73208
1 32.1491 46.3257 7.76029
1 35.4137 44.418 5.0997
1 36.9744 47.2037 5.10294
1 36.9806 49.0083 7.63876
1 35.2959 46.2557 7.69401
1 38.4685 44.3773 5.01729
1 40.211 47.1537 5.01133
1 40.23 49.0523 7.62438
1 38.5034 46.2381 7.66239
1 41.6773 44.4708 5.00265
1 43.2438 47.1013 5.09593
1 43.2889 49.0672 7.78296
1 41.7013 46.2056 7.65534
1 44.8231 44.4616 5.05027
1 46.3978 47.1457 5.08957
1 46.4923 49.0181 7.67973
1 44.8504 46.2574 7.74707
1 47.9669 44.3729 5.09312
1 49.5811 47.1907 5.07948
1 49.6213 49.2564 7.59029
1 47.9449 46.3441 7.67899
1 32.3568 49.9617 5.09977
1 35.4088 49.9653 5.04461
1 38.6034 49.9665 5.11902
1 41.7917 49.9263 4.92903
1 44.8143 49.8307 5.01671
1 48.013 49.9917 5.00553
1 43.3796 32.5436 12.964
1 46.6902 30.7778 10.2294
1 46.5803 32.5056 12.9364
1 49.7577 30.6536 10.1471
1 49.7258 32.4459 12.8031
1 36.9885 36.1601 10.4777
1 36.9033 37.9934 13.0315
1 40.1348 36.2258 10.3297
1 40.0294 37.9792 13.0121
1 38.7082 35.3167 12.9836
1 41.7971 33.4668 10.4328
1 43.3538 36.1766 10.344
1 43.3731 38.036 12.9171
1 41.7771 35.361 12.89
1 45.0358 33.5408 10.2904
1 46.4548 36.2397 10.2749
1 46.5597 37.9257 12.8176
1 44.9538 35.2732 12.8983
1 48.1116 33.4649 10.3154
1 49.697 36.2261 10.3204
1 49.7108 38.0059 12.8607
1 48.0861 35.2607 12.9046
1 33.8072 41.8116 10.4178
1 33.7487 43.6008 13.0006
1 35.3647 38.9728 10.5069
1 36.8909 41.6012 10.3457
1 36.9198 43.4796 12.9608
1 35.4449 40.7503 13.0358
1 38.4531 38.9228 10.3948
1 40.0447 41.5084 10.3138
1 40.1008 43.529 12.9055
1 38.4832 40.6582 13.0289
1 41.7123 38.8864 10.3386
1 43.1898 41.6619 10.3778
1 43.2893 43.5024 12.9184
1 41.5807 40.6978 13.0522
1 45.0001 38.985 10.2495
1 46.4708 41.8087 10.3997
1 46.5774 43.4803 12.9346
1 44.8996 40.7974 12.8538
1 48.1306 39.0152 10.3766
1 49.6753 41.7743 10.1959
1 49.6464 43.5506 12.7947
1 48.1265 40.8409 12.8861
1 30.5001 47.3805 10.3616
1 30.6897 49.194 12.9599
1 32.183 44.5497 10.2312
1 33.6603 47.2915 10.3363
1 33.6822 49.0757 12.9336
1 31.9556 46.2879 12.9633
1 35.2943 44.5163 10.4366
1 36.9646 47.1357 10.187
1 36.9517 49.0282 12.9445
1 35.1627 46.3016 12.9851
1 38.4459 44.3561 10.3386
1 40.1124 47.1922 10.3327
1 40.0502 49.0551 13.0057
1 38.4153 46.3759 12.9716
1 41.6784 44.4655 10.2441
1 43.3274 47.1237 10.371
1 43.332 48.9532 12.9856
1 41.5542 46.4108 12.9114
1 44.9131 44.5141 10.426
1 46.4819 47.2361 10.3304
1 46.3495 48.9588 12.8925
1 44.978 46.2712 13.0448
1 48.0926 44.5321 10.289
1 49.6525 47.2414 10.0927
1 49.6429 49.0086 12.8603
1 48.0677 46.2809 12.8738
1 32.2072 50.0579 10.3418
1 35.4194 49.8049 10.3144
1 38.556 49.9137 10.3343
1 41.7765 49.821 10.3281
1 44.9041 49.9053 10.3127
1 48.1713 50.0154 10.3004
1 43.4529 32.6135 18.0623
1 43.396 30.944 15.5251
1 46.5806 32.4539 18.079
1 46.5046 30.7921 15.4606
1 49.7646 32.5276 18.1786
1 37.1911 36.2893 15.6389
1 37.0314 38.0506 18.2603
1 40.2458 36.2226 15.593
1 40.2233 38.0719 18.2436
1 38.6545 35.4021 18.1444
1 41.8266 33.5351 15.537
1 43.4218 36.1301 15.4535
1 43.4077 38.0746 18.1091
1 41.815 35.3662 18.1882
1 45.035 33.527 15.4627
1 46.582 36.2832 15.5933
1 46.5852 38.0756 18.2366
1 45.0185 35.2722 18.2204
1 48.181 33.5275 15.4209
1 49.7643 36.3052 15.5208
1 49.6216 38.0283 18.0729
1 48.1312 35.2985 18.2227
1 33.8661 41.7851 15.6119
1 33.8642 43.5709 18.2088
1 35.5891 38.9743 15.7032
1 36.9167 41.6664 15.6078
1 37.0523 43.5263 18.1424
1 35.4306 40.8702 18.239
1 38.6863 38.9497 15.6189
1 40.074 41.7513 15.6448
1 40.2238 43.6244 18.1394
1 38.5847 40.7025 18.1526
1 41.777 38.8901 15.5688
1 43.3516 41.6863 15.4878
1 43.3249 43.5745 18.0072
1 41.7905 40.798 18.1846
1 45.0027 38.9706 15.5238
1 46.4424 41.7267 15.5121
1 46.4653 43.5733 18.09
1 44.8576 40.9082 18.1777
1 48.1604 39.0063 15.4653
1 49.55 41.7338 15.5096
1 49.7 43.4816 18.0823
1 48.1014 40.8901 18.1557
1 30.6682 47.3104 15.6833
1 30.5313 49.1041 18.3601
1 32.1794 44.4408 15.5994
1 33.6553 47.2765 15.6006
1 33.6198 48.9973 18.3546
1 32.2381 46.249 18.2338
1 35.2342 44.5035 15.5833
1 36.8642 47.1862 15.5478
1 36.8027 49.1146 18.2613
1 35.2263 46.3509 18.1262
1 38.4786 44.4824 15.4772
1 40.1405 47.173 15.6479
1 39.9683 49.03 18.3596
1 38.3577 46.3746 18.1643
1 41.6591 44.4827 15.516
1 43.2632 47.2514 15.5242
1 43.2254 49.1018 18.258
1 41.6723 46.3371 18.1125
1 44.9574 44.4919 15.4923
1 46.4314 47.1907 15.6004
1 46.3943 48.9713 18.156
1 44.7763 46.2912 18.1435
1 48.092 44.4189 15.4878
1 49.6435 47.169 15.5534
1 49.7044 49.0088 18.1778
1 48.054 46.1883 18.1221
1 32.1965 49.9402 15.6214
1 35.3518 49.9601 15.5767
1 38.4157 49.9232 15.5219
1 41.658 49.9162 15.6085
1 44.8215 49.9577 15.5411
1 48.095 49.8933 15.5637
1 43.4257 32.4868 23.2311
1 46.5342 30.8933 20.7924
1 46.5719 32.4542 23.4366
1 49.7019 30.7753 20.8205
1 49.7202 32.5184 23.3326
1 36.9806 36.2378 20.7597
1 37.0414 38.0251 23.4181
1 40.1685 36.3028 20.7791
1 40.0981 38.0265 23.3447
1 38.4837 35.2579 23.4687
1 41.8391 33.7337 20.7233
1 43.374 36.3201 20.7527
1 43.3028 37.9965 23.368
1 41.6662 35.2556 23.5719
1 45.0554 33.5715 20.6266
1 46.4539 36.2653 20.8731
1 46.5248 38.0208 23.5126
1 44.7763 35.1955 23.291
1 48.1304 33.4853 20.77
1 49.7573 36.2492 20.8067
1 49.7042 37.819 23.452
1 47.9573 35.2494 23.2643
1 33.9376 41.7211 20.928
1 33.8295 43.5639 23.3008
1 35.4196 38.9741 20.916
1 37.0457 41.729 20.7299
1 36.9739 43.6138 23.471
1 35.4499 40.9336 23.3805
1 38.5533 38.9894 20.746
1 40.1821 41.7796 20.7287
1 40.0971 43.5481 23.5326
1 38.4744 40.8088 23.3717
1 41.8139 38.9956 20.8082
1 43.2939 41.7916 20.7633
1 43.2626 43.5257 23.3856
1 41.687 40.8197 23.417
1 44.9373 39.0532 20.7923
1 46.4405 41.7039 20.8492
1 46.4423 43.5322 23.4203
1 44.8147 40.7103 23.3952
1 48.1627 38.983 20.8235
1 49.6326 41.6942 20.7695
1 49.64 43.5064 23.4563
1 48.0462 40.7194 23.545
1 30.6595 47.2893 20.9322
1 30.5442 48.9693 23.6487
1 32.2549 44.4488 20.8441
1 33.7896 47.2349 20.8957
1 33.7551 49.0023 23.5071
1 32.1215 46.3327 23.4749
1 35.4589 44.4866 20.7373
1 36.9507 47.2155 20.8209
1 37.0236 49.0601 23.4453
1 35.2873 46.2879 23.4036
1 38.6247 44.5364 20.8537
1 40.1292 47.2451 20.8497
1 40.1244 49.0799 23.5665
1 38.4999 46.3216 23.4859
1 41.806 44.5872 20.7305
1 43.2966 47.2403 20.8409
1 43.2703 49.0217 23.4953
1 41.739 46.3248 23.4773
1 44.8579 44.4837 20.777
1 46.4553 47.0897 20.819
1 46.5127 49.0445 23.4267
1 44.8734 46.3306 23.4754
1 48.0932 44.4353 20.8851
1 49.5747 47.1011 20.853
1 49.7373 48.9694 23.3448
1 48.0389 46.2661 23.538
1 32.0628 50.0297 21.0081
1 35.3047 49.9726 20.8676
1 38.5021 49.9746 20.8814
1 41.655 49.9845 20.8784
1 44.9027 49.9649 20.8567
1 48.0882 49.9363 20.7403
1 43.5756 30.8496 25.9557
1 46.627 30.8594 26.0967
1 37.1444 36.2493 26.0695
1 40.2459 36.2367 26.1184
1 41.9108 33.5022 26.0643
1 43.4238 36.1649 26.0299
1 44.9983 33.5627 25.8471
1 46.5704 36.2242 26.0013
1 48.1591 33.5744 25.91
1 49.7723 36.2168 26.138
1 33.8778 41.8419 25.9563
1 35.4947 38.9469 26.0786
1 36.9318 41.7384 26.0155
1 38.5596 39.003 25.966
1 40.0863 41.7932 26.0495
1 41.7864 38.9786 26.0036
1 43.3156 41.6246 25.995
1 44.8916 38.8729 26.0493
1 46.4345 41.6921 26.118
1 48.1483 38.9625 26.0934
1 49.7047 41.6483 26.1323
1 30.6038 47.0206 26.2276
1 32.1724 44.4 25.9511
1 33.6399 47.028 26.1249
1 35.226 44.4948 26.0905
1 36.8322 47.1434 25.9134
1 38.5666 44.4382 26.007
1 40.0864 47.176 26.0666
1 41.7548 44.3658 26.0899
1 43.3729 47.162 26.1183
1 44.8146 44.375 26.1165
1 46.4575 47.1054 26.0053
1 48.077 44.3869 26.1242
1 49.7443 47.2411 26.0324
1 32.1521 49.7687 26.2279
1 35.3022 49.9394 25.9456
1 38.4406 50.0015 25.9963
1 41.6994 50.0081 26.1539
1 44.8613 49.9129 26.0714
1 48.0606 49.9498 25.9842
1 43.5948 32.5722 28.5664
1 46.681 32.7197 28.5444
1 49.7123 32.5366 28.5587
1 37.155 38.0706 28.6181
1 40.3372 38.1337 28.6261
1 38.6461 35.4161 28.6645
1 43.4676 38.1762 28.5936
1 41.8274 35.2911 28.7201
1 46.6094 37.9871 28.6674
1 44.953 35.321 28.7217
1 49.6977 38.0774 28.7259
1 48.2059 35.3316 28.649
1 33.7649 43.4191 28.6639
1 36.9881 43.5072 28.5572
1 35.4796 40.8275 28.6134
1 40.098 43.5269 28.7231
1 38.5359 40.8067 28.6412
1 43.3392 43.4359 28.6543
1 41.7242 40.853 28.7314
1 46.6251 43.5062 28.6983
1 45.0245 40.7725 28.673
1 49.6949 43.6521 28.6111
1 48.1686 40.8184 28.6714
1 30.6297 48.9879 28.9345
1 33.7821 48.7998 28.704
1 32.1564 45.9668 28.7408
1 37.0408 49.0386 28.7164
1 35.348 46.1307 28.6496
1 40.0715 49.0405 28.6984
1 38.5474 46.291 28.5999
1 43.2452 48.9886 28.6304
1 41.7846 46.2305 28.7086
1 46.6295 48.9789 28.5592
1 44.9671 46.2323 28.7361
1 49.829 48.9867 28.5949
1 48.1729 46.3117 28.6965
1 43.3723 32.6146 34.0881
1 46.3788 30.8649 31.0553
1 46.6009 32.4725 33.8854
1 49.6931 30.9128 31.0971
1 49.7463 32.4954 33.8282
1 37.0944 36.2862 31.2271
1 37.0189 37.8525 33.8989
1 40.1626 36.2246 31.2042
1 40.0881 38.0866 34.0075
1 38.7179 35.208 33.7892
1 41.7983 33.5865 31.3483
1 43.3319 36.197 31.3217
1 43.3131 37.972 34.0282
1 41.8138 35.2402 33.8905
1 44.9065 33.5584 31.3181
1 46.5146 36.3025 31.2513
1 46.5599 38.0328 33.9752
1 45.086 35.2625 33.9145
1 47.9912 33.4888 31.3038
1 49.7488 36.1907 31.1304
1 49.7048 37.9615 33.8326
1 48.1993 35.2782 33.9213
1 33.8559 41.6613 31.2192
1 33.8569 43.5624 34.036
1 35.6506 38.9267 31.3571
1 36.9126 41.681 31.2209
1 36.9667 43.4482 33.9666
1 35.4337 40.7491 33.8277
1 38.7 38.9471 31.1997
1 40.196 41.6704 31.3884
1 40.2803 43.4519 33.9955
1 38.4588 40.6315 33.9274
1 41.8167 38.9191 31.4824
1 43.4027 41.6862 31.3471
1 43.35 43.5756 33.818
1 41.7589 40.7726 33.9083
1 44.8957 38.9454 31.3188
1 46.6557 41.7112 31.2556
1 46.5746 43.4408 33.8556
1 44.9153 40.715 33.9961
1 48.1419 39.0461 31.303
1 49.7262 41.8057 31.242
1 49.8014 43.5489 33.9388
1 48.1166 40.7919 33.9874
1 30.787 47.1511 31.3534
1 30.8286 48.999 33.7803
1 32.2789 44.3792 31.3757
1 33.8753 47.0299 31.3303
1 33.8885 48.9544 34.0038
1 32.3385 46.3006 33.9477
1 35.359 44.4327 31.3091
1 37.0723 47.1069 31.3268
1 37.0142 48.8869 33.9009
1 35.4464 46.2404 33.8916
1 38.4999 44.3444 31.348
1 40.15 47.116 31.2504
1 40.276 49.0449 33.8829
1 38.6542 46.1723 33.9423
1 41.7694 44.3633 31.3037
1 43.4184 47.177 31.2738
1 43.3696 48.9609 33.8969
1 41.8487 46.301 33.8792
1 45.0145 44.3629 31.2957
1 46.5454 47.1585 31.3038
1 46.5315 48.9909 33.8104
1 45.055 46.2672 33.9468
1 48.1759 44.5122 31.3249
1 49.6864 47.1813 31.267
1 49.5659 49.0409 33.8878
1 48.1243 46.3366 33.8908
1 32.3861 49.8064 31.2985
1 35.3743 49.9111 31.2322
1 38.5773 49.8533 31.3069
1 41.818 49.8817 31.2968
1 44.9523 49.9864 31.297
1 48.006 49.9049 31.1618
1 43.4023 32.5557 39.2241
1 43.5701 30.7126 36.6711
1 46.6511 32.3317 39.0116
1 46.6225 30.6512 36.4909
1 49.773 32.4911 39.0797
1 37.0968 36.0402 36.4217
1 36.9929 38.0364 39.1643
1 40.2316 36.0734 36.4945
1 40.2468 38.0237 39.164
1 38.7147 35.4026 39.1148
1 42.0062 33.5139 36.6476
1 43.3964 36.1557 36.6271
1 43.4002 37.8874 39.2213
1 41.8636 35.2307 39.2645
1 45.1276 33.4035 36.6095
1 46.5885 36.0452 36.5178
1 46.639 38.0143 39.1169
1 45.0733 35.1853 39.1619
1 48.2528 33.3921 36.4824
1 49.752 36.0922 36.4618
1 49.6969 37.9486 39.0818
1 48.1668 35.1443 39.1339
1 33.9973 41.6445 36.5512
1 33.8903 43.4577 39.1375
1 35.4718 38.7626 36.4468
1 37.0705 41.5263 36.6485
1 37.0153 43.3762 39.0943
1 35.4241 40.6009 39.1199
1 38.6168 38.7305 36.6282
1 40.1968 41.507 36.5593
1 40.2077 43.3916 39.1009
1 38.5497 40.5728 39.2917
1 41.7753 38.7799 36.6044
1 43.2569 41.6293 36.4935
1 43.3504 43.4359 39.1105
1 41.8334 40.6373 39.2258
1 44.9148 38.8936 36.6588
1 46.5222 41.7244 36.605
1 46.4981 43.399 39.0633
1 44.9648 40.7266 39.136
1 48.1112 38.8089 36.475
1 49.7956 41.6715 36.5022
1 49.6705 43.4064 39.0694
1 48.1009 40.7516 39.2352
1 30.7073 47.1283 36.4978
1 30.6015 48.8743 39.2642
1 32.4162 44.4826 36.6096
1 33.8964 47.2056 36.6044
1 33.7325 48.9549 39.2423
1 32.3281 46.2282 39.199
1 35.4833 44.3226 36.5608
1 37.0156 47.1716 36.5208
1 36.7932 49.0477 39.1464
1 35.3481 46.1968 39.1764
1 38.6861 44.3448 36.525
1 40.2437 47.1199 36.5143
1 40.0654 48.9721 39.1645
1 38.4928 46.22 39.0929
1 41.8302 44.5187 36.4301
1 43.3765 47.1801 36.5208
1 43.331 48.9332 39.0242
1 41.8161 46.2022 39.1204
1 44.9955 44.3491 36.4279
1 46.5356 47.1577 36.5623
1 46.508 49.0033 39.0752
1 45.0079 46.2155 39.0856
1 48.099 44.4457 36.4763
1 49.7679 47.2463 36.5225
1 49.6156 49.0694 39.0289
1 48.2068 46.2737 39.0341
1 32.2937 49.7362 36.5461
1 35.4006 49.9794 36.6194
1 38.524 49.9356 36.4783
1 41.7284 50.0191 36.4676
1 44.9724 49.8798 36.5334
1 48.0397 49.9326 36.4251
1 46.9552 30.9283 41.8474
1 50.0311 30.8353 41.9051
1 37.3771 36.3136 41.7332
1 40.3509 36.1742 41.7204
1 41.9193 33.3951 41.8438
1 43.4718 36.0029 41.8228
1 45.0608 33.2754 41.7773
1 46.6722 36.0863 41.8233
1 48.3383 33.5433 41.7232
1 49.8349 36.1795 41.6989
1 33.9244 41.5931 41.7097
1 35.6605 38.9701 41.8575
1 36.9646 41.6771 41.7402
1 38.7795 38.9305 41.7801
1 40.2481 41.5968 41.813
1 41.8774 38.8205 41.7988
1 43.4602 41.6023 41.7537
1 44.9641 38.8257 41.7858
1 46.614 41.6248 41.7713
1 48.1022 38.8257 41.7066
1 49.6947 41.5798 41.7502
1 30.6905 47.1001 41.7948
1 32.2986 44.3292 41.6866
1 33.7354 47.1379 41.7431
1 35.3504 44.2616 41.7049
1 36.9156 46.964 41.7288
1 38.6221 44.2555 41.8155
1 40.1251 47.0068 41.7306
1 41.7526 44.3553 41.7983
1 43.3392 47.0648 41.7132
1 45.059 44.2418 41.7064
1 46.5199 47.2143 41.6188
1 48.205 44.5432 41.6511
1 49.7541 47.2111 41.7212
1 32.2771 49.7995 41.8317
1 35.3825 49.86 41.8549
1 38.493 49.9081 41.7478
1 41.776 49.8532 41.8667
1 44.8605 49.8468 41.6851
1 48.1948 49.945 41.7104
1 43.662 32.6753 44.497
1 46.709 32.5884 44.5333
1 49.8431 32.6077 44.5635
1 37.2264 37.9596 44.3136
1 40.2782 37.9535 44.334
1 38.7245 35.3576 44.2231
1 43.4711 37.8813 44.3277
1 41.8489 35.245 44.4576
1 46.5106 38.0333 44.4301
1 45.0956 35.3003 44.4662
1 49.7953 38.0238 44.3637
1 48.2292 35.302 44.4728
1 33.9434 43.4219 44.338
1 37.0032 43.4223 44.4034
1 35.6009 40.72 44.4756
1 40.2445 43.4423 44.4241
1 38.7578 40.6286 44.4849
1 43.4205 43.4655 44.5065
1 41.9509 40.6286 44.5108
1 46.6712 43.5015 44.2625
1 45.0235 40.7836 44.4481
1 49.7453 43.519 44.3955
1 48.2385 40.7627 44.3445
1 30.6522 48.9085 44.4957
1 33.7687 48.9613 44.4809
1 32.1149 46.1593 44.3938
1 36.9832 48.8552 44.4225
1 35.3527 46.1062 44.4865
1 40.3119 48.8758 44.4547
1 38.5147 46.1523 44.3434
1 43.4001 48.9116 44.329
1 41.778 46.1371 44.414
1 46.542 49.0341 44.3251
1 44.9831 46.2225 44.3939
1 49.6794 49.0016 44.3828
1 48.151 46.2177 44.3215
1 43.4641 32.586 49.6558
1 46.6685 30.6829 47.0966
1 46.6351 32.5941 49.6006
1 49.7814 30.7442 47.0312
1 49.8918 32.5333 49.694
1 37.1935 36.1402 46.9176
1 37.0506 37.9514 49.6826
1 40.2324 36.237 47.0084
1 40.1645 38.1593 49.7494
1 38.7521 35.3404 49.7303
1 41.9513 33.4772 47.0538
1 43.3927 36.1322 47.0817
1 43.367 38.0701 49.719
1 41.842 35.3315 49.7105
1 45.088 33.3265 47.035
1 46.5814 36.1492 47.1681
1 46.6138 38.0551 49.6231
1 45.0706 35.3214 49.689
1 48.2045 33.4769 47.0803
1 49.8407 36.1454 47.031
1 49.8445 38.0232 49.6917
1 48.2359 35.1931 49.699
1 34.0128 41.7084 46.9755
1 33.8381 43.5563 49.5456
1 35.6334 38.8944 46.9435
1 37.084 41.7319 47.0593
1 36.901 43.6258 49.6361
1 35.413 40.8496 49.5078
1 38.6822 38.9172 47.0609
1 40.2791 41.6877 47.0841
1 40.111 43.5323 49.6762
1 38.4885 40.7571 49.7564
1 41.8023 38.8327 47.0868
1 43.4851 41.6408 47.0911
1 43.3235 43.5291 49.6753
1 41.7635 40.7395 49.7468
1 44.9384 38.8711 47.086
1 46.5849 41.7012 46.9759
1 46.5275 43.5419 49.6414
1 44.9724 40.8112 49.7347
1 48.1188 38.9657 46.9134
1 49.7408 41.6487 47.0335
1 49.6019 43.6085 49.6964
1 48.1125 40.7937 49.6666
1 30.5452 47.153 46.9989
1 30.6642 48.958 49.7669
1 32.2395 44.4008 46.9646
1 33.7003 47.0912 47.0007
1 33.7058 48.89 49.5745
1 32.0446 46.2228 49.6269
1 35.4059 44.459 46.9814
1 36.9089 47.0632 47.0998
1 37.0548 48.8956 49.537
1 35.2837 46.1773 49.6566
1 38.6697 44.434 47.0514
1 40.2081 46.9977 47.0212
1 40.2099 49.0257 49.5644
1 38.5498 46.2516 49.6673
1 41.9436 44.3621 47.0394
1 43.381 47.1726 47.0713
1 43.4079 48.9152 49.7588
1 41.7525 46.2038 49.641
1 45.0958 44.5061 47.0518
1 46.5271 47.2131 46.9507
1 46.4857 49.0169 49.6964
1 44.9987 46.2732 49.562
1 48.1508 44.3951 46.879
1 49.7588 47.1967 46.9476
1 49.6827 49.061 49.6572
1 48.1309 46.294 49.5758
1 32.1985 49.8522 47.1302
1 35.351 49.8875 46.9621
1 38.6385 49.812 47.0183
1 41.8524 49.8209 47.0167
1 44.9795 49.8474 47.0396
1 48.1822 49.9302 47.0875
1 43.3619 32.7476 54.9723
1 52.9841 30.9523 52.2035
1 46.5658 32.6852 55.0838
1 56.0714 30.769 52.2981
1 49.6906 32.5965 54.9354
1 37.1448 36.3453 52.2534
1 36.9728 38.0689 54.9019
1 40.3588 36.3077 52.3005
1 40.1999 38.1422 54.9074
1 38.7606 35.4727 54.7923
1 41.8197 33.601 52.2513
1 43.4674 36.2243 52.426
1 43.3261 38.1599 54.9243
1 41.8527 35.34 54.8775
1 44.9506 33.5252 52.3404
1 46.5803 36.2804 52.3366
1 46.5082 38.082 55.0032
1 44.9621 35.3413 54.9163
1 48.1422 33.5337 52.3427
1 49.6856 36.2379 52.3715
1 49.7084 38.065 54.9214
1 48.1467 35.3568 54.9971
1 33.8782 41.8061 52.1731
1 33.8367 43.4522 54.994
1 35.6017 39.1774 52.1433
1 36.9687 41.8742 52.3913
1 36.9148 43.5836 54.9102
1 35.3845 40.8208 54.8474
1 38.5895 39.0222 52.3348
1 40.081 41.7104 52.2793
1 40.0712 43.5878 54.877
1 38.5958 40.8242 54.8837
1 41.8187 38.9221 52.3485
1 43.2897 41.7225 52.3763
1 43.3383 43.5566 54.8924
1 41.7497 40.8946 54.9121
1 44.9918 39.038 52.4199
1 46.4984 41.7843 52.3369
1 46.5172 43.5774 54.9716
1 44.8901 40.928 55.0507
1 48.1593 39.0058 52.4055
1 49.6733 41.7485 52.3273
1 49.7519 43.6096 54.9956
1 48.0101 40.8224 54.9294
1 30.5374 47.2446 52.413
1 30.6733 49.0069 54.8715
1 32.3558 44.4959 52.2006
1 33.7012 47.1317 52.2459
1 33.7538 48.9032 54.9888
1 32.2504 46.2462 54.9287
1 35.2881 44.4655 52.1846
1 36.9293 47.1373 52.2219
1 36.9716 49.0091 54.943
1 35.2661 46.1856 54.8637
1 38.4473 44.5494 52.3117
1 40.158 47.1149 52.3454
1 40.1403 49.0223 54.8987
1 38.5719 46.2389 54.9873
1 41.7672 44.3901 52.2586
1 43.4399 47.1615 52.3024
1 43.3771 49.1184 54.9177
1 41.7578 46.2821 54.984
1 44.9711 44.4227 52.2904
1 46.6019 47.1502 52.2092
1 46.5091 49.0966 54.9889
1 44.909 46.3076 54.8702
1 48.1287 44.4498 52.2802
1 49.6835 47.0293 52.3073
1 49.6239 49.11 54.8915
1 48.1151 46.2097 54.9614
1 32.2753 49.8495 52.3847
1 35.3829 49.8823 52.0907
1 38.4821 49.9327 52.2426
1 41.6142 49.9305 52.202
1 44.9374 49.937 52.359
1 48.0496 49.9104 52.2828
1 43.404 32.6643 60.2558
1 46.5874 30.8828 57.6463
1 46.6153 32.6099 60.2551
1 49.7786 30.8392 57.4445
1 49.6862 32.6164 60.065
1 37.129 36.2697 57.4497
1 37.1178 38.074 60.073
1 40.2398 36.2236 57.4025
1 40.1505 38.0136 60.1078
1 38.71 35.3469 59.9899
1 41.8966 33.5203 57.69
1 43.2699 36.3052 57.4569
1 43.3083 37.8945 60.1824
1 41.7738 35.313 60.1265
1 45.0196 33.5274 57.6777
1 46.4434 36.2082 57.5747
1 46.5821 38.1201 60.1986
1 45.0711 35.2386 60.2054
1 48.1148 33.5672 57.5361
1 49.7197 36.3413 57.5845
1 49.6904 38.1485 60.2944
1 48.1579 35.4353 60.1501
1 33.7973 41.6836 57.6294
1 33.942 43.532 60.1502
1 35.5197 38.9877 57.6073
1 36.8901 41.7174 57.4484
1 37.115 43.4494 60.1471
1 35.5452 40.8951 60.214
1 38.5101 38.9689 57.5017
1 40.1233 41.618 57.5164
1 40.1333 43.4732 60.1388
1 38.624 40.6934 60.1396
1 41.7118 38.9209 57.633
1 43.1834 41.7509 57.572
1 43.2495 43.5479 60.1525
1 41.7011 40.7163 60.2174
1 44.9017 38.9756 57.6454
1 46.4489 41.8692 57.5705
1 46.3559 43.6932 60.1041
1 44.8901 40.8468 60.177
1 48.0664 39.0483 57.5869
1 49.6556 41.7218 57.5243
1 49.6378 43.6836 60.2102
1 48.0502 40.945 60.2298
1 30.7996 47.2117 57.6018
1 30.6445 48.9486 60.2252
1 32.3545 44.3391 57.6771
1 33.8195 47.1261 57.511
1 33.7613 48.9703 60.1606
1 32.2563 46.3246 60.1948
1 35.3146 44.4082 57.5655
1 37.1054 47.1649 57.5952
1 36.9437 49.023 60.2279
1 35.3919 46.2521 60.2212
1 38.5143 44.3441 57.5825
1 40.1681 47.2775 57.5828
1 40.1694 49.1477 60.1949
1 38.6356 46.3349 60.1644
1 41.7252 44.4875 57.5708
1 43.2415 47.2205 57.5727
1 43.2703 49.1194 60.0914
1 41.7219 46.278 60.2388
1 44.86 44.4857 57.524
1 46.5425 47.1935 57.5891
1 46.5453 49.126 60.137
1 44.8782 46.4167 60.2182
1 48.1263 44.5324 57.6169
1 49.6978 47.2999 57.4797
1 49.5741 49.1347 60.2852
1 47.9925 46.3717 60.1379
1 32.2578 49.9503 57.4673
1 35.3045 49.8267 57.5134
1 38.6423 50.0011 57.6086
1 41.812 50.054 57.4055
1 44.8404 50.0265 57.4845
1 48.2282 50.0839 57.62
1 43.3968 32.6571 65.4513
1 46.6877 30.8647 62.7834
1 46.5233 32.6741 65.3975
1 49.704 30.923 62.5868
1 49.6115 32.3809 65.3832
1 37.1374 36.3323 62.6106
1 37.0402 38.0997 65.266
1 40.2404 36.2737 62.7986
1 40.1617 38.0358 65.4661
1 38.6524 35.5178 65.2828
1 41.9009 33.5931 62.8205
1 43.4191 36.1927 62.7707
1 43.4189 38.1128 65.5038
1 41.8952 35.4215 65.4688
1 45.031 33.4949 62.7804
1 46.5108 36.1866 62.7017
1 46.5918 37.9131 65.5054
1 44.9533 35.3208 65.4675
1 48.1721 33.5588 62.7973
1 49.7231 36.1488 62.6986
1 49.6527 37.9868 65.4454
1 48.2274 35.234 65.4573
1 33.8531 41.6313 62.7753
1 33.9089 43.5903 65.4145
1 35.681 39.1088 62.6689
1 36.9969 41.7875 62.929
1 37.0004 43.4969 65.4981
1 35.3642 40.762 65.3888
1 38.6328 38.9499 62.7779
1 40.0909 41.6567 62.7859
1 40.0369 43.537 65.313
1 38.6093 40.7086 65.4252
1 41.7297 38.9414 62.7253
1 43.2871 41.7417 62.9066
1 43.3715 43.6068 65.4826
1 41.7724 40.8066 65.3733
1 44.9368 38.9007 62.8357
1 46.436 41.8302 62.6637
1 46.6348 43.5824 65.3804
1 44.9311 40.8582 65.4161
1 48.0216 39.0147 62.8623
1 49.7036 41.7259 62.7921
1 49.7401 43.5315 65.3233
1 48.0801 40.7913 65.4588
1 30.5409 47.18 62.8866
1 30.7694 49.0308 65.4824
1 32.5244 44.6165 62.8035
1 33.5928 47.3405 62.7364
1 33.7715 48.9471 65.3943
1 32.1048 46.2602 65.3669
1 35.4735 44.3815 62.8086
1 36.7767 47.2933 62.7469
1 36.9918 49.1119 65.4
1 35.3456 46.31 65.3225
1 38.5386 44.4681 62.8152
1 39.9053 47.1879 62.8083
1 40.1531 49.1162 65.4202
1 38.5194 46.2433 65.3934
1 41.7055 44.3628 62.7615
1 43.2049 47.308 62.7981
1 43.1729 49.0302 65.4076
1 41.6892 46.3136 65.3421
1 44.8974 44.5267 62.8018
1 46.4309 47.3173 62.7365
1 46.3964 49.0752 65.4337
1 44.8586 46.3023 65.3411
1 48.0569 44.4896 62.7651
1 49.5571 47.2318 62.8209
1 49.5498 49.1024 65.5007
1 47.9729 46.3841 65.3402
1 32.2965 49.9922 62.7755
1 35.2943 49.9938 62.8163
1 38.5079 49.9524 62.7047
1 41.606 49.9759 62.8538
1 44.8284 49.9256 62.7788
1 48.0167 50.0298 62.8285
1 43.4528 32.583 70.6382
1 46.4825 30.8884 67.93
1 46.5402 32.5414 70.571
1 49.651 30.7639 68.0914
1 49.6285 32.5759 70.7023
1 37.0038 36.3299 67.9865
1 37.0222 38.0567 70.6684
1 40.1214 36.2977 67.949
1 40.1026 38.0009 70.6645
1 38.5192 35.3876 70.6225
1 41.9119 33.7697 68.1019
1 43.2844 36.3867 68.1936
1 43.2968 38.1307 70.692
1 41.7249 35.3349 70.7656
1 44.8938 33.4605 68.0172
1 46.4381 36.208 68.0622
1 46.5126 38.0491 70.6624
1 44.9416 35.2499 70.646
1 48.1393 33.446 68.0677
1 49.6318 36.1722 68.1003
1 49.5901 37.97 70.719
1 48.0189 35.2554 70.5819
1 33.8606 41.8268 68.0454
1 33.7535 43.4271 70.6846
1 35.4716 39.0872 68.0613
1 36.9327 41.6806 68.0398
1 36.893 43.4868 70.5642
1 35.3827 40.771 70.6906
1 38.6052 38.9785 68.0969
1 40.1711 41.7884 68.0186
1 40.0351 43.6252 70.6259
1 38.5815 40.771 70.6047
1 41.6948 39.0443 68.0138
1 43.3045 41.7658 68.0728
1 43.3346 43.6781 70.5592
1 41.6546 40.8609 70.6898
1 44.8553 39.0411 68.1094
1 46.4776 41.6643 68.016
1 46.4373 43.4795 70.6779
1 44.8935 40.8925 70.683
1 48.0398 38.926 68.0599
1 49.7019 41.7299 68.0053
1 49.6112 43.5548 70.6629
1 48.0881 40.8155 70.7531
1 30.8023 47.386 68.0434
1 30.7886 49.0373 70.6318
1 32.2567 44.562 67.9413
1 33.8128 47.2374 68.0404
1 33.8365 48.9846 70.6458
1 32.166 46.2337 70.611
1 35.2905 44.4487 68.0606
1 36.8716 47.1996 68.0497
1 36.9857 49.0268 70.6415
1 35.3411 46.2283 70.657
1 38.4447 44.4508 67.9736
1 40.1045 47.3148 67.9893
1 40.1993 49.026 70.6451
1 38.4531 46.2503 70.7569
1 41.585 44.5181 67.9436
1 43.1365 47.2462 67.9564
1 43.2703 49.0043 70.6378
1 41.6372 46.2354 70.7038
1 44.8725 44.547 68.0028
1 46.3909 47.2524 68.0902
1 46.516 49.0244 70.6423
1 44.8524 46.3217 70.5881
1 47.9995 44.4415 68.053
1 49.533 47.2116 67.9685
1 49.669 49.1336 70.698
1 48.0093 46.3479 70.678
1 32.3318 50.003 68.079
1 35.4559 49.9191 68.0583
1 38.5061 50.0017 68.0025
1 41.6539 49.985 68.0061
1 44.7605 49.9322 68.0522
1 47.9556 50.0287 68.1322
1 43.4866 32.6455 75.9511
1 46.473 30.8661 73.1922
1 46.6619 32.6239 75.9534
1 49.6988 30.9245 73.2202
1 49.7806 32.7215 75.9148
1 37.1733 36.3255 73.2733
1 36.8536 38.039 75.8968
1 40.1394 36.2091 73.2768
1 40.0078 38.1659 75.9433
1 38.5511 35.4543 75.9716
1 41.839 33.4719 73.3078
1 43.3485 36.2077 73.3365
1 43.3652 38.0611 75.9088
1 41.835 35.3789 75.8802
1 44.969 33.5947 73.2866
1 46.503 36.2149 73.2767
1 46.5471 38.0265 75.921
1 45.0276 35.2471 75.9071
1 48.171 33.5211 73.2494
1 49.6745 36.22 73.2264
1 49.7491 38.1479 75.7626
1 48.1337 35.3325 76.0303
1 33.7621 41.5445 73.2045
1 33.8213 43.6125 75.8583
1 35.5325 38.9069 73.1568
1 36.9304 41.6033 73.3621
1 36.8872 43.415 75.9902
1 35.295 40.7012 75.7189
1 38.572 39.0056 73.2788
1 40.0645 41.7161 73.3279
1 40.1216 43.4833 75.8563
1 38.3494 40.7166 75.9507
1 41.6688 39.0267 73.3489
1 43.1811 41.7815 73.2494
1 43.186 43.5369 75.8679
1 41.5728 40.7815 75.9353
1 44.9001 38.8782 73.2336
1 46.5191 41.7113 73.3711
1 46.3966 43.5546 75.9117
1 44.8068 40.8294 75.8587
1 48.0367 38.9371 73.3235
1 49.7006 41.6441 73.2599
1 49.6545 43.6509 75.8906
1 48.03 40.8158 75.9545
1 30.8486 47.2403 73.327
1 30.7252 49.0161 75.8126
1 32.3195 44.3635 73.3711
1 33.9089 47.0629 73.3107
1 33.7225 48.9994 75.8265
1 32.2017 46.2193 75.8721
1 35.3702 44.3195 73.276
1 36.9827 47.1906 73.4039
1 36.9764 48.9938 75.8843
1 35.4525 46.2385 75.9773
1 38.4909 44.4311 73.361
1 40.0534 47.2714 73.3449
1 40.1305 48.9978 75.8981
1 38.56 46.1963 75.8673
1 41.7098 44.5459 73.25
1 43.3035 47.2399 73.2534
1 43.1396 49.0662 75.8838
1 41.7096 46.2594 75.9357
1 44.8225 44.4195 73.2383
1 46.4247 47.1832 73.2663
1 46.5348 49.0509 75.9405
1 44.8614 46.2711 75.7999
1 48.0067 44.5388 73.2867
1 49.6991 47.3051 73.3394
1 49.6788 49.0738 75.9418
1 48.1563 46.2633 75.8755
1 32.3323 49.8533 73.1837
1 35.4632 49.9307 73.2263
1 38.5429 50.0774 73.2159
1 41.7103 49.9306 73.2336
1 44.9205 49.8998 73.2697
1 47.9901 49.866 73.3844
1 43.4249 32.4889 81.1101
1 46.3735 31.0785 78.699
1 46.4916 32.5927 81.3188
1 49.3892 31.1014 78.4296
1 49.6328 32.6152 81.2304
1 37.1863 36.3333 78.5721
1 37.005 38.0867 81.0828
1 40.2791 36.2425 78.5287
1 40.149 37.9302 81.1182
1 38.5181 35.2571 81.1893
1 41.8998 33.6791 78.4424
1 43.3385 36.2599 78.4775
1 43.2011 37.9718 81.0652
1 41.6803 35.162 81.0806
1 44.9518 33.6041 78.5834
1 46.5256 36.2353 78.554
1 46.3504 37.9143 81.1226
1 44.9558 35.2467 81.2059
1 47.9847 33.7355 78.6865
1 49.7098 36.3653 78.5228
1 49.6871 37.9887 81.1466
1 48.0941 35.3332 81.234
1 33.8402 41.7611 78.4875
1 33.7284 43.4813 81.179