ITEM: TIMESTEP
0
ITEM: NUMBER OF ATOMS
5538
ITEM: BOX BOUNDS pp pp pp
0 100
0 100
0 100
ITEM: ATOMS id type x y z 
11 1 41.6 33.2554 0 
1 1 43.2 32.3316 2.61279 
15 1 44.8 33.2554 0 
2 1 46.4 30.4841 0 
3 1 46.4 32.3316 2.61279 
4 1 49.6 30.4841 0 
5 1 49.6 32.3316 2.61279 
19 1 48 33.2554 0 
6 1 36.8 36.0267 0 
8 1 40 36.0267 0 
10 1 38.4 35.1029 2.61279 
14 1 41.6 35.1029 2.61279 
12 1 43.2 36.0267 0 
18 1 44.8 35.1029 2.61279 
16 1 46.4 36.0267 0 
20 1 49.6 36.0267 0 
22 1 48 35.1029 2.61279 
7 1 36.8 37.8742 2.61279 
23 1 33.6 41.5692 0 
25 1 35.2 38.7979 0 
26 1 36.8 41.5692 0 
28 1 35.2 40.6455 2.61279 
9 1 40 37.8742 2.61279 
29 1 38.4 38.7979 0 
30 1 40 41.5692 0 
32 1 38.4 40.6455 2.61279 
33 1 41.6 38.7979 0 
36 1 41.6 40.6455 2.61279 
13 1 43.2 37.8742 2.61279 
34 1 43.2 41.5692 0 
37 1 44.8 38.7979 0 
40 1 44.8 40.6455 2.61279 
17 1 46.4 37.8742 2.61279 
21 1 49.6 37.8742 2.61279 
38 1 46.4 41.5692 0 
41 1 48 38.7979 0 
42 1 49.6 41.5692 0 
44 1 48 40.6455 2.61279 
47 1 32 44.3405 0 
24 1 33.6 43.4167 2.61279 
27 1 36.8 43.4167 2.61279 
51 1 35.2 44.3405 0 
31 1 40 43.4167 2.61279 
55 1 38.4 44.3405 0 
59 1 41.6 44.3405 0 
35 1 43.2 43.4167 2.61279 
63 1 44.8 44.3405 0 
39 1 46.4 43.4167 2.61279 
43 1 49.6 43.4167 2.61279 
67 1 48 44.3405 0 
45 1 30.4 47.1118 0 
46 1 30.4 48.9593 2.61279 
50 1 32 46.188 2.61279 
71 1 32 49.8831 0 
48 1 33.6 47.1118 0 
49 1 33.6 48.9593 2.61279 
52 1 36.8 47.1118 0 
53 1 36.8 48.9593 2.61279 
54 1 35.2 46.188 2.61279 
72 1 35.2 49.8831 0 
56 1 40 47.1118 0 
57 1 40 48.9593 2.61279 
58 1 38.4 46.188 2.61279 
62 1 41.6 46.188 2.61279 
73 1 38.4 49.8831 0 
74 1 41.6 49.8831 0 
60 1 43.2 47.1118 0 
61 1 43.2 48.9593 2.61279 
66 1 44.8 46.188 2.61279 
75 1 44.8 49.8831 0 
64 1 46.4 47.1118 0 
65 1 46.4 48.9593 2.61279 
68 1 49.6 47.1118 0 
69 1 49.6 48.9593 2.61279 
70 1 48 46.188 2.61279 
76 1 48 49.8831 0 
87 1 41.6 33.2554 5.22558 
77 1 43.2 32.3316 7.83837 
91 1 44.8 33.2554 5.22558 
78 1 46.4 30.4841 5.22558 
79 1 46.4 32.3316 7.83837 
80 1 49.6 30.4841 5.22558 
81 1 49.6 32.3316 7.83837 
95 1 48 33.2554 5.22558 
82 1 36.8 36.0267 5.22558 
84 1 40 36.0267 5.22558 
86 1 38.4 35.1029 7.83837 
90 1 41.6 35.1029 7.83837 
88 1 43.2 36.0267 5.22558 
94 1 44.8 35.1029 7.83837 
92 1 46.4 36.0267 5.22558 
96 1 49.6 36.0267 5.22558 
98 1 48 35.1029 7.83837 
83 1 36.8 37.8742 7.83837 
99 1 33.6 41.5692 5.22558 
101 1 35.2 38.7979 5.22558 
102 1 36.8 41.5692 5.22558 
104 1 35.2 40.6455 7.83837 
85 1 40 37.8742 7.83837 
105 1 38.4 38.7979 5.22558 
106 1 40 41.5692 5.22558 
108 1 38.4 40.6455 7.83837 
109 1 41.6 38.7979 5.22558 
112 1 41.6 40.6455 7.83837 
89 1 43.2 37.8742 7.83837 
110 1 43.2 41.5692 5.22558 
113 1 44.8 38.7979 5.22558 
116 1 44.8 40.6455 7.83837 
93 1 46.4 37.8742 7.83837 
97 1 49.6 37.8742 7.83837 
114 1 46.4 41.5692 5.22558 
117 1 48 38.7979 5.22558 
118 1 49.6 41.5692 5.22558 
120 1 48 40.6455 7.83837 
123 1 32 44.3405 5.22558 
100 1 33.6 43.4167 7.83837 
103 1 36.8 43.4167 7.83837 
127 1 35.2 44.3405 5.22558 
107 1 40 43.4167 7.83837 
131 1 38.4 44.3405 5.22558 
135 1 41.6 44.3405 5.22558 
111 1 43.2 43.4167 7.83837 
139 1 44.8 44.3405 5.22558 
115 1 46.4 43.4167 7.83837 
119 1 49.6 43.4167 7.83837 
143 1 48 44.3405 5.22558 
121 1 30.4 47.1118 5.22558 
122 1 30.4 48.9593 7.83837 
126 1 32 46.188 7.83837 
147 1 32 49.8831 5.22558 
124 1 33.6 47.1118 5.22558 
125 1 33.6 48.9593 7.83837 
128 1 36.8 47.1118 5.22558 
129 1 36.8 48.9593 7.83837 
130 1 35.2 46.188 7.83837 
148 1 35.2 49.8831 5.22558 
132 1 40 47.1118 5.22558 
133 1 40 48.9593 7.83837 
134 1 38.4 46.188 7.83837 
138 1 41.6 46.188 7.83837 
149 1 38.4 49.8831 5.22558 
150 1 41.6 49.8831 5.22558 
136 1 43.2 47.1118 5.22558 
137 1 43.2 48.9593 7.83837 
142 1 44.8 46.188 7.83837 
151 1 44.8 49.8831 5.22558 
140 1 46.4 47.1118 5.22558 
141 1 46.4 48.9593 7.83837 
144 1 49.6 47.1118 5.22558 
145 1 49.6 48.9593 7.83837 
146 1 48 46.188 7.83837 
152 1 48 49.8831 5.22558 
163 1 41.6 33.2554 10.4512 
153 1 43.2 32.3316 13.0639 
167 1 44.8 33.2554 10.4512 
154 1 46.4 30.4841 10.4512 
155 1 46.4 32.3316 13.0639 
156 1 49.6 30.4841 10.4512 
157 1 49.6 32.3316 13.0639 
171 1 48 33.2554 10.4512 
158 1 36.8 36.0267 10.4512 
160 1 40 36.0267 10.4512 
162 1 38.4 35.1029 13.0639 
166 1 41.6 35.1029 13.0639 
164 1 43.2 36.0267 10.4512 
170 1 44.8 35.1029 13.0639 
168 1 46.4 36.0267 10.4512 
172 1 49.6 36.0267 10.4512 
174 1 48 35.1029 13.0639 
159 1 36.8 37.8742 13.0639 
175 1 33.6 41.5692 10.4512 
177 1 35.2 38.7979 10.4512 
178 1 36.8 41.5692 10.4512 
180 1 35.2 40.6455 13.0639 
161 1 40 37.8742 13.0639 
181 1 38.4 38.7979 10.4512 
182 1 40 41.5692 10.4512 
184 1 38.4 40.6455 13.0639 
185 1 41.6 38.7979 10.4512 
188 1 41.6 40.6455 13.0639 
165 1 43.2 37.8742 13.0639 
186 1 43.2 41.5692 10.4512 
189 1 44.8 38.7979 10.4512 
192 1 44.8 40.6455 13.0639 
169 1 46.4 37.8742 13.0639 
173 1 49.6 37.8742 13.0639 
190 1 46.4 41.5692 10.4512 
193 1 48 38.7979 10.4512 
194 1 49.6 41.5692 10.4512 
196 1 48 40.6455 13.0639 
199 1 32 44.3405 10.4512 
176 1 33.6 43.4167 13.0639 
179 1 36.8 43.4167 13.0639 
203 1 35.2 44.3405 10.4512 
183 1 40 43.4167 13.0639 
207 1 38.4 44.3405 10.4512 
211 1 41.6 44.3405 10.4512 
187 1 43.2 43.4167 13.0639 
215 1 44.8 44.3405 10.4512 
191 1 46.4 43.4167 13.0639 
195 1 49.6 43.4167 13.0639 
219 1 48 44.3405 10.4512 
197 1 30.4 47.1118 10.4512 
198 1 30.4 48.9593 13.0639 
202 1 32 46.188 13.0639 
223 1 32 49.8831 10.4512 
200 1 33.6 47.1118 10.4512 
201 1 33.6 48.9593 13.0639 
204 1 36.8 47.1118 10.4512 
205 1 36.8 48.9593 13.0639 
206 1 35.2 46.188 13.0639 
224 1 35.2 49.8831 10.4512 
208 1 40 47.1118 10.4512 
209 1 40 48.9593 13.0639 
210 1 38.4 46.188 13.0639 
214 1 41.6 46.188 13.0639 
225 1 38.4 49.8831 10.4512 
226 1 41.6 49.8831 10.4512 
212 1 43.2 47.1118 10.4512 
213 1 43.2 48.9593 13.0639 
218 1 44.8 46.188 13.0639 
227 1 44.8 49.8831 10.4512 
216 1 46.4 47.1118 10.4512 
217 1 46.4 48.9593 13.0639 
220 1 49.6 47.1118 10.4512 
221 1 49.6 48.9593 13.0639 
222 1 48 46.188 13.0639 
228 1 48 49.8831 10.4512 
239 1 41.6 33.2554 15.6767 
229 1 43.2 32.3316 18.2895 
243 1 44.8 33.2554 15.6767 
230 1 46.4 30.4841 15.6767 
231 1 46.4 32.3316 18.2895 
232 1 49.6 30.4841 15.6767 
233 1 49.6 32.3316 18.2895 
247 1 48 33.2554 15.6767 
234 1 36.8 36.0267 15.6767 
236 1 40 36.0267 15.6767 
238 1 38.4 35.1029 18.2895 
242 1 41.6 35.1029 18.2895 
240 1 43.2 36.0267 15.6767 
246 1 44.8 35.1029 18.2895 
244 1 46.4 36.0267 15.6767 
248 1 49.6 36.0267 15.6767 
250 1 48 35.1029 18.2895 
235 1 36.8 37.8742 18.2895 
251 1 33.6 41.5692 15.6767 
253 1 35.2 38.7979 15.6767 
254 1 36.8 41.5692 15.6767 
256 1 35.2 40.6455 18.2895 
237 1 40 37.8742 18.2895 
257 1 38.4 38.7979 15.6767 
258 1 40 41.5692 15.6767 
260 1 38.4 40.6455 18.2895 
261 1 41.6 38.7979 15.6767 
264 1 41.6 40.6455 18.2895 
241 1 43.2 37.8742 18.2895 
262 1 43.2 41.5692 15.6767 
265 1 44.8 38.7979 15.6767 
268 1 44.8 40.6455 18.2895 
245 1 46.4 37.8742 18.2895 
249 1 49.6 37.8742 18.2895 
266 1 46.4 41.5692 15.6767 
269 1 48 38.7979 15.6767 
270 1 49.6 41.5692 15.6767 
272 1 48 40.6455 18.2895 
275 1 32 44.3405 15.6767 
252 1 33.6 43.4167 18.2895 
255 1 36.8 43.4167 18.2895 
279 1 35.2 44.3405 15.6767 
259 1 40 43.4167 18.2895 
283 1 38.4 44.3405 15.6767 
287 1 41.6 44.3405 15.6767 
263 1 43.2 43.4167 18.2895 
291 1 44.8 44.3405 15.6767 
267 1 46.4 43.4167 18.2895 
271 1 49.6 43.4167 18.2895 
295 1 48 44.3405 15.6767 
273 1 30.4 47.1118 15.6767 
274 1 30.4 48.9593 18.2895 
278 1 32 46.188 18.2895 
299 1 32 49.8831 15.6767 
276 1 33.6 47.1118 15.6767 
277 1 33.6 48.9593 18.2895 
280 1 36.8 47.1118 15.6767 
281 1 36.8 48.9593 18.2895 
282 1 35.2 46.188 18.2895 
300 1 35.2 49.8831 15.6767 
284 1 40 47.1118 15.6767 
285 1 40 48.9593 18.2895 
286 1 38.4 46.188 18.2895 
290 1 41.6 46.188 18.2895 
301 1 38.4 49.8831 15.6767 
302 1 41.6 49.8831 15.6767 
288 1 43.2 47.1118 15.6767 
289 1 43.2 48.9593 18.2895 
294 1 44.8 46.188 18.2895 
303 1 44.8 49.8831 15.6767 
292 1 46.4 47.1118 15.6767 
293 1 46.4 48.9593 18.2895 
296 1 49.6 47.1118 15.6767 
297 1 49.6 48.9593 18.2895 
298 1 48 46.188 18.2895 
304 1 48 49.8831 15.6767 
315 1 41.6 33.2554 20.9023 
305 1 43.2 32.3316 23.5151 
319 1 44.8 33.2554 20.9023 
306 1 46.4 30.4841 20.9023 
307 1 46.4 32.3316 23.5151 
308 1 49.6 30.4841 20.9023 
309 1 49.6 32.3316 23.5151 
323 1 48 33.2554 20.9023 
310 1 36.8 36.0267 20.9023 
312 1 40 36.0267 20.9023 
314 1 38.4 35.1029 23.5151 
318 1 41.6 35.1029 23.5151 
316 1 43.2 36.0267 20.9023 
322 1 44.8 35.1029 23.5151 
320 1 46.4 36.0267 20.9023 
324 1 49.6 36.0267 20.9023 
326 1 48 35.1029 23.5151 
311 1 36.8 37.8742 23.5151 
327 1 33.6 41.5692 20.9023 
329 1 35.2 38.7979 20.9023 
330 1 36.8 41.5692 20.9023 
332 1 35.2 40.6455 23.5151 
313 1 40 37.8742 23.5151 
333 1 38.4 38.7979 20.9023 
334 1 40 41.5692 20.9023 
336 1 38.4 40.6455 23.5151 
337 1 41.6 38.7979 20.9023 
340 1 41.6 40.6455 23.5151 
317 1 43.2 37.8742 23.5151 
338 1 43.2 41.5692 20.9023 
341 1 44.8 38.7979 20.9023 
344 1 44.8 40.6455 23.5151 
321 1 46.4 37.8742 23.5151 
325 1 49.6 37.8742 23.5151 
342 1 46.4 41.5692 20.9023 
345 1 48 38.7979 20.9023 
346 1 49.6 41.5692 20.9023 
348 1 48 40.6455 23.5151 
351 1 32 44.3405 20.9023 
328 1 33.6 43.4167 23.5151 
331 1 36.8 43.4167 23.5151 
355 1 35.2 44.3405 20.9023 
335 1 40 43.4167 23.5151 
359 1 38.4 44.3405 20.9023 
363 1 41.6 44.3405 20.9023 
339 1 43.2 43.4167 23.5151 
367 1 44.8 44.3405 20.9023 
343 1 46.4 43.4167 23.5151 
347 1 49.6 43.4167 23.5151 
371 1 48 44.3405 20.9023 
349 1 30.4 47.1118 20.9023 
350 1 30.4 48.9593 23.5151 
354 1 32 46.188 23.5151 
375 1 32 49.8831 20.9023 
352 1 33.6 47.1118 20.9023 
353 1 33.6 48.9593 23.5151 
356 1 36.8 47.1118 20.9023 
357 1 36.8 48.9593 23.5151 
358 1 35.2 46.188 23.5151 
376 1 35.2 49.8831 20.9023 
360 1 40 47.1118 20.9023 
361 1 40 48.9593 23.5151 
362 1 38.4 46.188 23.5151 
366 1 41.6 46.188 23.5151 
377 1 38.4 49.8831 20.9023 
378 1 41.6 49.8831 20.9023 
364 1 43.2 47.1118 20.9023 
365 1 43.2 48.9593 23.5151 
370 1 44.8 46.188 23.5151 
379 1 44.8 49.8831 20.9023 
368 1 46.4 47.1118 20.9023 
369 1 46.4 48.9593 23.5151 
372 1 49.6 47.1118 20.9023 
373 1 49.6 48.9593 23.5151 
374 1 48 46.188 23.5151 
380 1 48 49.8831 20.9023 
385 1 41.6 33.2554 26.1279 
387 1 44.8 33.2554 26.1279 
381 1 46.4 30.4841 26.1279 
382 1 49.6 30.4841 26.1279 
389 1 48 33.2554 26.1279 
383 1 36.8 36.0267 26.1279 
384 1 40 36.0267 26.1279 
386 1 43.2 36.0267 26.1279 
388 1 46.4 36.0267 26.1279 
390 1 49.6 36.0267 26.1279 
391 1 33.6 41.5692 26.1279 
392 1 35.2 38.7979 26.1279 
393 1 36.8 41.5692 26.1279 
394 1 38.4 38.7979 26.1279 
395 1 40 41.5692 26.1279 
396 1 41.6 38.7979 26.1279 
397 1 43.2 41.5692 26.1279 
398 1 44.8 38.7979 26.1279 
399 1 46.4 41.5692 26.1279 
400 1 48 38.7979 26.1279 
401 1 49.6 41.5692 26.1279 
403 1 32 44.3405 26.1279 
405 1 35.2 44.3405 26.1279 
407 1 38.4 44.3405 26.1279 
409 1 41.6 44.3405 26.1279 
411 1 44.8 44.3405 26.1279 
413 1 48 44.3405 26.1279 
402 1 30.4 47.1118 26.1279 
415 1 32 49.8831 26.1279 
404 1 33.6 47.1118 26.1279 
406 1 36.8 47.1118 26.1279 
416 1 35.2 49.8831 26.1279 
408 1 40 47.1118 26.1279 
417 1 38.4 49.8831 26.1279 
418 1 41.6 49.8831 26.1279 
410 1 43.2 47.1118 26.1279 
419 1 44.8 49.8831 26.1279 
412 1 46.4 47.1118 26.1279 
414 1 49.6 47.1118 26.1279 
420 1 48 49.8831 26.1279 
467 1 41.6 33.2554 31.3535 
421 1 43.2 32.3316 28.7407 
471 1 44.8 33.2554 31.3535 
422 1 46.4 32.3316 28.7407 
423 1 49.6 32.3316 28.7407 
458 1 46.4 30.4841 31.3535 
460 1 49.6 30.4841 31.3535 
475 1 48 33.2554 31.3535 
462 1 36.8 36.0267 31.3535 
426 1 38.4 35.1029 28.7407 
428 1 41.6 35.1029 28.7407 
464 1 40 36.0267 31.3535 
430 1 44.8 35.1029 28.7407 
468 1 43.2 36.0267 31.3535 
432 1 48 35.1029 28.7407 
472 1 46.4 36.0267 31.3535 
476 1 49.6 36.0267 31.3535 
424 1 36.8 37.8742 28.7407 
435 1 35.2 40.6455 28.7407 
479 1 33.6 41.5692 31.3535 
481 1 35.2 38.7979 31.3535 
482 1 36.8 41.5692 31.3535 
425 1 40 37.8742 28.7407 
437 1 38.4 40.6455 28.7407 
439 1 41.6 40.6455 28.7407 
485 1 38.4 38.7979 31.3535 
486 1 40 41.5692 31.3535 
489 1 41.6 38.7979 31.3535 
427 1 43.2 37.8742 28.7407 
441 1 44.8 40.6455 28.7407 
490 1 43.2 41.5692 31.3535 
493 1 44.8 38.7979 31.3535 
429 1 46.4 37.8742 28.7407 
431 1 49.6 37.8742 28.7407 
443 1 48 40.6455 28.7407 
494 1 46.4 41.5692 31.3535 
497 1 48 38.7979 31.3535 
498 1 49.6 41.5692 31.3535 
503 1 32 44.3405 31.3535 
433 1 33.6 43.4167 28.7407 
434 1 36.8 43.4167 28.7407 
507 1 35.2 44.3405 31.3535 
436 1 40 43.4167 28.7407 
511 1 38.4 44.3405 31.3535 
515 1 41.6 44.3405 31.3535 
438 1 43.2 43.4167 28.7407 
519 1 44.8 44.3405 31.3535 
440 1 46.4 43.4167 28.7407 
442 1 49.6 43.4167 28.7407 
523 1 48 44.3405 31.3535 
444 1 30.4 48.9593 28.7407 
446 1 32 46.188 28.7407 
501 1 30.4 47.1118 31.3535 
527 1 32 49.8831 31.3535 
445 1 33.6 48.9593 28.7407 
447 1 36.8 48.9593 28.7407 
448 1 35.2 46.188 28.7407 
504 1 33.6 47.1118 31.3535 
508 1 36.8 47.1118 31.3535 
528 1 35.2 49.8831 31.3535 
449 1 40 48.9593 28.7407 
450 1 38.4 46.188 28.7407 
452 1 41.6 46.188 28.7407 
512 1 40 47.1118 31.3535 
529 1 38.4 49.8831 31.3535 
530 1 41.6 49.8831 31.3535 
451 1 43.2 48.9593 28.7407 
454 1 44.8 46.188 28.7407 
516 1 43.2 47.1118 31.3535 
531 1 44.8 49.8831 31.3535 
453 1 46.4 48.9593 28.7407 
455 1 49.6 48.9593 28.7407 
456 1 48 46.188 28.7407 
520 1 46.4 47.1118 31.3535 
524 1 49.6 47.1118 31.3535 
532 1 48 49.8831 31.3535 
543 1 41.6 33.2554 36.579 
457 1 43.2 32.3316 33.9663 
547 1 44.8 33.2554 36.579 
459 1 46.4 32.3316 33.9663 
461 1 49.6 32.3316 33.9663 
534 1 46.4 30.4841 36.579 
536 1 49.6 30.4841 36.579 
551 1 48 33.2554 36.579 
538 1 36.8 36.0267 36.579 
466 1 38.4 35.1029 33.9663 
470 1 41.6 35.1029 33.9663 
540 1 40 36.0267 36.579 
474 1 44.8 35.1029 33.9663 
544 1 43.2 36.0267 36.579 
478 1 48 35.1029 33.9663 
548 1 46.4 36.0267 36.579 
552 1 49.6 36.0267 36.579 
463 1 36.8 37.8742 33.9663 
484 1 35.2 40.6455 33.9663 
555 1 33.6 41.5692 36.579 
557 1 35.2 38.7979 36.579 
558 1 36.8 41.5692 36.579 
465 1 40 37.8742 33.9663 
488 1 38.4 40.6455 33.9663 
492 1 41.6 40.6455 33.9663 
561 1 38.4 38.7979 36.579 
562 1 40 41.5692 36.579 
565 1 41.6 38.7979 36.579 
469 1 43.2 37.8742 33.9663 
496 1 44.8 40.6455 33.9663 
566 1 43.2 41.5692 36.579 
569 1 44.8 38.7979 36.579 
473 1 46.4 37.8742 33.9663 
477 1 49.6 37.8742 33.9663 
500 1 48 40.6455 33.9663 
570 1 46.4 41.5692 36.579 
573 1 48 38.7979 36.579 
574 1 49.6 41.5692 36.579 
579 1 32 44.3405 36.579 
480 1 33.6 43.4167 33.9663 
483 1 36.8 43.4167 33.9663 
583 1 35.2 44.3405 36.579 
487 1 40 43.4167 33.9663 
587 1 38.4 44.3405 36.579 
591 1 41.6 44.3405 36.579 
491 1 43.2 43.4167 33.9663 
595 1 44.8 44.3405 36.579 
495 1 46.4 43.4167 33.9663 
499 1 49.6 43.4167 33.9663 
599 1 48 44.3405 36.579 
502 1 30.4 48.9593 33.9663 
506 1 32 46.188 33.9663 
577 1 30.4 47.1118 36.579 
603 1 32 49.8831 36.579 
505 1 33.6 48.9593 33.9663 
509 1 36.8 48.9593 33.9663 
510 1 35.2 46.188 33.9663 
580 1 33.6 47.1118 36.579 
584 1 36.8 47.1118 36.579 
604 1 35.2 49.8831 36.579 
513 1 40 48.9593 33.9663 
514 1 38.4 46.188 33.9663 
518 1 41.6 46.188 33.9663 
588 1 40 47.1118 36.579 
605 1 38.4 49.8831 36.579 
606 1 41.6 49.8831 36.579 
517 1 43.2 48.9593 33.9663 
522 1 44.8 46.188 33.9663 
592 1 43.2 47.1118 36.579 
607 1 44.8 49.8831 36.579 
521 1 46.4 48.9593 33.9663 
525 1 49.6 48.9593 33.9663 
526 1 48 46.188 33.9663 
596 1 46.4 47.1118 36.579 
600 1 49.6 47.1118 36.579 
608 1 48 49.8831 36.579 
613 1 41.6 33.2554 41.8046 
533 1 43.2 32.3316 39.1918 
615 1 44.8 33.2554 41.8046 
535 1 46.4 32.3316 39.1918 
537 1 49.6 32.3316 39.1918 
609 1 46.4 30.4841 41.8046 
610 1 49.6 30.4841 41.8046 
617 1 48 33.2554 41.8046 
611 1 36.8 36.0267 41.8046 
542 1 38.4 35.1029 39.1918 
546 1 41.6 35.1029 39.1918 
612 1 40 36.0267 41.8046 
550 1 44.8 35.1029 39.1918 
614 1 43.2 36.0267 41.8046 
554 1 48 35.1029 39.1918 
616 1 46.4 36.0267 41.8046 
618 1 49.6 36.0267 41.8046 
539 1 36.8 37.8742 39.1918 
560 1 35.2 40.6455 39.1918 
619 1 33.6 41.5692 41.8046 
620 1 35.2 38.7979 41.8046 
621 1 36.8 41.5692 41.8046 
541 1 40 37.8742 39.1918 
564 1 38.4 40.6455 39.1918 
568 1 41.6 40.6455 39.1918 
622 1 38.4 38.7979 41.8046 
623 1 40 41.5692 41.8046 
624 1 41.6 38.7979 41.8046 
545 1 43.2 37.8742 39.1918 
572 1 44.8 40.6455 39.1918 
625 1 43.2 41.5692 41.8046 
626 1 44.8 38.7979 41.8046 
549 1 46.4 37.8742 39.1918 
553 1 49.6 37.8742 39.1918 
576 1 48 40.6455 39.1918 
627 1 46.4 41.5692 41.8046 
628 1 48 38.7979 41.8046 
629 1 49.6 41.5692 41.8046 
631 1 32 44.3405 41.8046 
556 1 33.6 43.4167 39.1918 
559 1 36.8 43.4167 39.1918 
633 1 35.2 44.3405 41.8046 
563 1 40 43.4167 39.1918 
635 1 38.4 44.3405 41.8046 
637 1 41.6 44.3405 41.8046 
567 1 43.2 43.4167 39.1918 
639 1 44.8 44.3405 41.8046 
571 1 46.4 43.4167 39.1918 
575 1 49.6 43.4167 39.1918 
641 1 48 44.3405 41.8046 
578 1 30.4 48.9593 39.1918 
582 1 32 46.188 39.1918 
630 1 30.4 47.1118 41.8046 
643 1 32 49.8831 41.8046 
581 1 33.6 48.9593 39.1918 
585 1 36.8 48.9593 39.1918 
586 1 35.2 46.188 39.1918 
632 1 33.6 47.1118 41.8046 
634 1 36.8 47.1118 41.8046 
644 1 35.2 49.8831 41.8046 
589 1 40 48.9593 39.1918 
590 1 38.4 46.188 39.1918 
594 1 41.6 46.188 39.1918 
636 1 40 47.1118 41.8046 
645 1 38.4 49.8831 41.8046 
646 1 41.6 49.8831 41.8046 
593 1 43.2 48.9593 39.1918 
598 1 44.8 46.188 39.1918 
638 1 43.2 47.1118 41.8046 
647 1 44.8 49.8831 41.8046 
597 1 46.4 48.9593 39.1918 
601 1 49.6 48.9593 39.1918 
602 1 48 46.188 39.1918 
640 1 46.4 47.1118 41.8046 
642 1 49.6 47.1118 41.8046 
648 1 48 49.8831 41.8046 
695 1 41.6 33.2554 47.0302 
649 1 43.2 32.3316 44.4174 
699 1 44.8 33.2554 47.0302 
650 1 46.4 32.3316 44.4174 
651 1 49.6 32.3316 44.4174 
686 1 46.4 30.4841 47.0302 
688 1 49.6 30.4841 47.0302 
703 1 48 33.2554 47.0302 
690 1 36.8 36.0267 47.0302 
654 1 38.4 35.1029 44.4174 
656 1 41.6 35.1029 44.4174 
692 1 40 36.0267 47.0302 
658 1 44.8 35.1029 44.4174 
696 1 43.2 36.0267 47.0302 
660 1 48 35.1029 44.4174 
700 1 46.4 36.0267 47.0302 
704 1 49.6 36.0267 47.0302 
652 1 36.8 37.8742 44.4174 
663 1 35.2 40.6455 44.4174 
707 1 33.6 41.5692 47.0302 
709 1 35.2 38.7979 47.0302 
710 1 36.8 41.5692 47.0302 
653 1 40 37.8742 44.4174 
665 1 38.4 40.6455 44.4174 
667 1 41.6 40.6455 44.4174 
713 1 38.4 38.7979 47.0302 
714 1 40 41.5692 47.0302 
717 1 41.6 38.7979 47.0302 
655 1 43.2 37.8742 44.4174 
669 1 44.8 40.6455 44.4174 
718 1 43.2 41.5692 47.0302 
721 1 44.8 38.7979 47.0302 
657 1 46.4 37.8742 44.4174 
659 1 49.6 37.8742 44.4174 
671 1 48 40.6455 44.4174 
722 1 46.4 41.5692 47.0302 
725 1 48 38.7979 47.0302 
726 1 49.6 41.5692 47.0302 
731 1 32 44.3405 47.0302 
661 1 33.6 43.4167 44.4174 
662 1 36.8 43.4167 44.4174 
735 1 35.2 44.3405 47.0302 
664 1 40 43.4167 44.4174 
739 1 38.4 44.3405 47.0302 
743 1 41.6 44.3405 47.0302 
666 1 43.2 43.4167 44.4174 
747 1 44.8 44.3405 47.0302 
668 1 46.4 43.4167 44.4174 
670 1 49.6 43.4167 44.4174 
751 1 48 44.3405 47.0302 
672 1 30.4 48.9593 44.4174 
674 1 32 46.188 44.4174 
729 1 30.4 47.1118 47.0302 
755 1 32 49.8831 47.0302 
673 1 33.6 48.9593 44.4174 
675 1 36.8 48.9593 44.4174 
676 1 35.2 46.188 44.4174 
732 1 33.6 47.1118 47.0302 
736 1 36.8 47.1118 47.0302 
756 1 35.2 49.8831 47.0302 
677 1 40 48.9593 44.4174 
678 1 38.4 46.188 44.4174 
680 1 41.6 46.188 44.4174 
740 1 40 47.1118 47.0302 
757 1 38.4 49.8831 47.0302 
758 1 41.6 49.8831 47.0302 
679 1 43.2 48.9593 44.4174 
682 1 44.8 46.188 44.4174 
744 1 43.2 47.1118 47.0302 
759 1 44.8 49.8831 47.0302 
681 1 46.4 48.9593 44.4174 
683 1 49.6 48.9593 44.4174 
684 1 48 46.188 44.4174 
748 1 46.4 47.1118 47.0302 
752 1 49.6 47.1118 47.0302 
760 1 48 49.8831 47.0302 
771 1 41.6 33.2554 52.2558 
685 1 43.2 32.3316 49.643 
775 1 44.8 33.2554 52.2558 
687 1 46.4 32.3316 49.643 
689 1 49.6 32.3316 49.643 
762 1 46.4 30.4841 52.2558 
764 1 49.6 30.4841 52.2558 
779 1 48 33.2554 52.2558 
766 1 36.8 36.0267 52.2558 
694 1 38.4 35.1029 49.643 
698 1 41.6 35.1029 49.643 
768 1 40 36.0267 52.2558 
702 1 44.8 35.1029 49.643 
772 1 43.2 36.0267 52.2558 
706 1 48 35.1029 49.643 
776 1 46.4 36.0267 52.2558 
780 1 49.6 36.0267 52.2558 
691 1 36.8 37.8742 49.643 
712 1 35.2 40.6455 49.643 
783 1 33.6 41.5692 52.2558 
785 1 35.2 38.7979 52.2558 
786 1 36.8 41.5692 52.2558 
693 1 40 37.8742 49.643 
716 1 38.4 40.6455 49.643 
720 1 41.6 40.6455 49.643 
789 1 38.4 38.7979 52.2558 
790 1 40 41.5692 52.2558 
793 1 41.6 38.7979 52.2558 
697 1 43.2 37.8742 49.643 
724 1 44.8 40.6455 49.643 
794 1 43.2 41.5692 52.2558 
797 1 44.8 38.7979 52.2558 
701 1 46.4 37.8742 49.643 
705 1 49.6 37.8742 49.643 
728 1 48 40.6455 49.643 
798 1 46.4 41.5692 52.2558 
801 1 48 38.7979 52.2558 
802 1 49.6 41.5692 52.2558 
807 1 32 44.3405 52.2558 
708 1 33.6 43.4167 49.643 
711 1 36.8 43.4167 49.643 
811 1 35.2 44.3405 52.2558 
715 1 40 43.4167 49.643 
815 1 38.4 44.3405 52.2558 
819 1 41.6 44.3405 52.2558 
719 1 43.2 43.4167 49.643 
823 1 44.8 44.3405 52.2558 
723 1 46.4 43.4167 49.643 
727 1 49.6 43.4167 49.643 
827 1 48 44.3405 52.2558 
730 1 30.4 48.9593 49.643 
734 1 32 46.188 49.643 
805 1 30.4 47.1118 52.2558 
831 1 32 49.8831 52.2558 
733 1 33.6 48.9593 49.643 
737 1 36.8 48.9593 49.643 
738 1 35.2 46.188 49.643 
808 1 33.6 47.1118 52.2558 
812 1 36.8 47.1118 52.2558 
832 1 35.2 49.8831 52.2558 
741 1 40 48.9593 49.643 
742 1 38.4 46.188 49.643 
746 1 41.6 46.188 49.643 
816 1 40 47.1118 52.2558 
833 1 38.4 49.8831 52.2558 
834 1 41.6 49.8831 52.2558 
745 1 43.2 48.9593 49.643 
750 1 44.8 46.188 49.643 
820 1 43.2 47.1118 52.2558 
835 1 44.8 49.8831 52.2558 
749 1 46.4 48.9593 49.643 
753 1 49.6 48.9593 49.643 
754 1 48 46.188 49.643 
824 1 46.4 47.1118 52.2558 
828 1 49.6 47.1118 52.2558 
836 1 48 49.8831 52.2558 
761 1 43.2 32.3316 54.8686 
763 1 46.4 32.3316 54.8686 
765 1 49.6 32.3316 54.8686 
770 1 38.4 35.1029 54.8686 
774 1 41.6 35.1029 54.8686 
778 1 44.8 35.1029 54.8686 
782 1 48 35.1029 54.8686 
767 1 36.8 37.8742 54.8686 
788 1 35.2 40.6455 54.8686 
769 1 40 37.8742 54.8686 
792 1 38.4 40.6455 54.8686 
796 1 41.6 40.6455 54.8686 
773 1 43.2 37.8742 54.8686 
800 1 44.8 40.6455 54.8686 
777 1 46.4 37.8742 54.8686 
781 1 49.6 37.8742 54.8686 
804 1 48 40.6455 54.8686 
784 1 33.6 43.4167 54.8686 
787 1 36.8 43.4167 54.8686 
791 1 40 43.4167 54.8686 
795 1 43.2 43.4167 54.8686 
799 1 46.4 43.4167 54.8686 
803 1 49.6 43.4167 54.8686 
806 1 30.4 48.9593 54.8686 
810 1 32 46.188 54.8686 
809 1 33.6 48.9593 54.8686 
813 1 36.8 48.9593 54.8686 
814 1 35.2 46.188 54.8686 
817 1 40 48.9593 54.8686 
818 1 38.4 46.188 54.8686 
822 1 41.6 46.188 54.8686 
821 1 43.2 48.9593 54.8686 
826 1 44.8 46.188 54.8686 
825 1 46.4 48.9593 54.8686 
829 1 49.6 48.9593 54.8686 
830 1 48 46.188 54.8686 
847 1 41.6 33.2554 57.4814 
837 1 43.2 32.3316 60.0941 
851 1 44.8 33.2554 57.4814 
838 1 46.4 30.4841 57.4814 
839 1 46.4 32.3316 60.0941 
840 1 49.6 30.4841 57.4814 
841 1 49.6 32.3316 60.0941 
855 1 48 33.2554 57.4814 
842 1 36.8 36.0267 57.4814 
844 1 40 36.0267 57.4814 
846 1 38.4 35.1029 60.0941 
850 1 41.6 35.1029 60.0941 
848 1 43.2 36.0267 57.4814 
854 1 44.8 35.1029 60.0941 
852 1 46.4 36.0267 57.4814 
856 1 49.6 36.0267 57.4814 
858 1 48 35.1029 60.0941 
843 1 36.8 37.8742 60.0941 
859 1 33.6 41.5692 57.4814 
861 1 35.2 38.7979 57.4814 
862 1 36.8 41.5692 57.4814 
864 1 35.2 40.6455 60.0941 
845 1 40 37.8742 60.0941 
865 1 38.4 38.7979 57.4814 
866 1 40 41.5692 57.4814 
868 1 38.4 40.6455 60.0941 
869 1 41.6 38.7979 57.4814 
872 1 41.6 40.6455 60.0941 
849 1 43.2 37.8742 60.0941 
870 1 43.2 41.5692 57.4814 
873 1 44.8 38.7979 57.4814 
876 1 44.8 40.6455 60.0941 
853 1 46.4 37.8742 60.0941 
857 1 49.6 37.8742 60.0941 
874 1 46.4 41.5692 57.4814 
877 1 48 38.7979 57.4814 
878 1 49.6 41.5692 57.4814 
880 1 48 40.6455 60.0941 
883 1 32 44.3405 57.4814 
860 1 33.6 43.4167 60.0941 
863 1 36.8 43.4167 60.0941 
887 1 35.2 44.3405 57.4814 
867 1 40 43.4167 60.0941 
891 1 38.4 44.3405 57.4814 
895 1 41.6 44.3405 57.4814 
871 1 43.2 43.4167 60.0941 
899 1 44.8 44.3405 57.4814 
875 1 46.4 43.4167 60.0941 
879 1 49.6 43.4167 60.0941 
903 1 48 44.3405 57.4814 
881 1 30.4 47.1118 57.4814 
882 1 30.4 48.9593 60.0941 
886 1 32 46.188 60.0941 
907 1 32 49.8831 57.4814 
884 1 33.6 47.1118 57.4814 
885 1 33.6 48.9593 60.0941 
888 1 36.8 47.1118 57.4814 
889 1 36.8 48.9593 60.0941 
890 1 35.2 46.188 60.0941 
908 1 35.2 49.8831 57.4814 
892 1 40 47.1118 57.4814 
893 1 40 48.9593 60.0941 
894 1 38.4 46.188 60.0941 
898 1 41.6 46.188 60.0941 
909 1 38.4 49.8831 57.4814 
910 1 41.6 49.8831 57.4814 
896 1 43.2 47.1118 57.4814 
897 1 43.2 48.9593 60.0941 
902 1 44.8 46.188 60.0941 
911 1 44.8 49.8831 57.4814 
900 1 46.4 47.1118 57.4814 
901 1 46.4 48.9593 60.0941 
904 1 49.6 47.1118 57.4814 
905 1 49.6 48.9593 60.0941 
906 1 48 46.188 60.0941 
912 1 48 49.8831 57.4814 
923 1 41.6 33.2554 62.7069 
913 1 43.2 32.3316 65.3197 
927 1 44.8 33.2554 62.7069 
914 1 46.4 30.4841 62.7069 
915 1 46.4 32.3316 65.3197 
916 1 49.6 30.4841 62.7069 
917 1 49.6 32.3316 65.3197 
931 1 48 33.2554 62.7069 
918 1 36.8 36.0267 62.7069 
920 1 40 36.0267 62.7069 
922 1 38.4 35.1029 65.3197 
926 1 41.6 35.1029 65.3197 
924 1 43.2 36.0267 62.7069 
930 1 44.8 35.1029 65.3197 
928 1 46.4 36.0267 62.7069 
932 1 49.6 36.0267 62.7069 
934 1 48 35.1029 65.3197 
919 1 36.8 37.8742 65.3197 
935 1 33.6 41.5692 62.7069 
937 1 35.2 38.7979 62.7069 
938 1 36.8 41.5692 62.7069 
940 1 35.2 40.6455 65.3197 
921 1 40 37.8742 65.3197 
941 1 38.4 38.7979 62.7069 
942 1 40 41.5692 62.7069 
944 1 38.4 40.6455 65.3197 
945 1 41.6 38.7979 62.7069 
948 1 41.6 40.6455 65.3197 
925 1 43.2 37.8742 65.3197 
946 1 43.2 41.5692 62.7069 
949 1 44.8 38.7979 62.7069 
952 1 44.8 40.6455 65.3197 
929 1 46.4 37.8742 65.3197 
933 1 49.6 37.8742 65.3197 
950 1 46.4 41.5692 62.7069 
953 1 48 38.7979 62.7069 
954 1 49.6 41.5692 62.7069 
956 1 48 40.6455 65.3197 
959 1 32 44.3405 62.7069 
936 1 33.6 43.4167 65.3197 
939 1 36.8 43.4167 65.3197 
963 1 35.2 44.3405 62.7069 
943 1 40 43.4167 65.3197 
967 1 38.4 44.3405 62.7069 
971 1 41.6 44.3405 62.7069 
947 1 43.2 43.4167 65.3197 
975 1 44.8 44.3405 62.7069 
951 1 46.4 43.4167 65.3197 
955 1 49.6 43.4167 65.3197 
979 1 48 44.3405 62.7069 
957 1 30.4 47.1118 62.7069 
958 1 30.4 48.9593 65.3197 
962 1 32 46.188 65.3197 
983 1 32 49.8831 62.7069 
960 1 33.6 47.1118 62.7069 
961 1 33.6 48.9593 65.3197 
964 1 36.8 47.1118 62.7069 
965 1 36.8 48.9593 65.3197 
966 1 35.2 46.188 65.3197 
984 1 35.2 49.8831 62.7069 
968 1 40 47.1118 62.7069 
969 1 40 48.9593 65.3197 
970 1 38.4 46.188 65.3197 
974 1 41.6 46.188 65.3197 
985 1 38.4 49.8831 62.7069 
986 1 41.6 49.8831 62.7069 
972 1 43.2 47.1118 62.7069 
973 1 43.2 48.9593 65.3197 
978 1 44.8 46.188 65.3197 
987 1 44.8 49.8831 62.7069 
976 1 46.4 47.1118 62.7069 
977 1 46.4 48.9593 65.3197 
980 1 49.6 47.1118 62.7069 
981 1 49.6 48.9593 65.3197 
982 1 48 46.188 65.3197 
988 1 48 49.8831 62.7069 
999 1 41.6 33.2554 67.9325 
989 1 43.2 32.3316 70.5453 
1003 1 44.8 33.2554 67.9325 
990 1 46.4 30.4841 67.9325 
991 1 46.4 32.3316 70.5453 
992 1 49.6 30.4841 67.9325 
993 1 49.6 32.3316 70.5453 
1007 1 48 33.2554 67.9325 
994 1 36.8 36.0267 67.9325 
996 1 40 36.0267 67.9325 
998 1 38.4 35.1029 70.5453 
1002 1 41.6 35.1029 70.5453 
1000 1 43.2 36.0267 67.9325 
1006 1 44.8 35.1029 70.5453 
1004 1 46.4 36.0267 67.9325 
1008 1 49.6 36.0267 67.9325 
1010 1 48 35.1029 70.5453 
995 1 36.8 37.8742 70.5453 
1011 1 33.6 41.5692 67.9325 
1013 1 35.2 38.7979 67.9325 
1014 1 36.8 41.5692 67.9325 
1016 1 35.2 40.6455 70.5453 
997 1 40 37.8742 70.5453 
1017 1 38.4 38.7979 67.9325 
1018 1 40 41.5692 67.9325 
1020 1 38.4 40.6455 70.5453 
1021 1 41.6 38.7979 67.9325 
1024 1 41.6 40.6455 70.5453 
1001 1 43.2 37.8742 70.5453 
1022 1 43.2 41.5692 67.9325 
1025 1 44.8 38.7979 67.9325 
1028 1 44.8 40.6455 70.5453 
1005 1 46.4 37.8742 70.5453 
1009 1 49.6 37.8742 70.5453 
1026 1 46.4 41.5692 67.9325 
1029 1 48 38.7979 67.9325 
1030 1 49.6 41.5692 67.9325 
1032 1 48 40.6455 70.5453 
1035 1 32 44.3405 67.9325 
1012 1 33.6 43.4167 70.5453 
1015 1 36.8 43.4167 70.5453 
1039 1 35.2 44.3405 67.9325 
1019 1 40 43.4167 70.5453 
1043 1 38.4 44.3405 67.9325 
1047 1 41.6 44.3405 67.9325 
1023 1 43.2 43.4167 70.5453 
1051 1 44.8 44.3405 67.9325 
1027 1 46.4 43.4167 70.5453 
1031 1 49.6 43.4167 70.5453 
1055 1 48 44.3405 67.9325 
1033 1 30.4 47.1118 67.9325 
1034 1 30.4 48.9593 70.5453 
1038 1 32 46.188 70.5453 
1059 1 32 49.8831 67.9325 
1036 1 33.6 47.1118 67.9325 
1037 1 33.6 48.9593 70.5453 
1040 1 36.8 47.1118 67.9325 
1041 1 36.8 48.9593 70.5453 
1042 1 35.2 46.188 70.5453 
1060 1 35.2 49.8831 67.9325 
1044 1 40 47.1118 67.9325 
1045 1 40 48.9593 70.5453 
1046 1 38.4 46.188 70.5453 
1050 1 41.6 46.188 70.5453 
1061 1 38.4 49.8831 67.9325 
1062 1 41.6 49.8831 67.9325 
1048 1 43.2 47.1118 67.9325 
1049 1 43.2 48.9593 70.5453 
1054 1 44.8 46.188 70.5453 
1063 1 44.8 49.8831 67.9325 
1052 1 46.4 47.1118 67.9325 
1053 1 46.4 48.9593 70.5453 
1056 1 49.6 47.1118 67.9325 
1057 1 49.6 48.9593 70.5453 
1058 1 48 46.188 70.5453 
1064 1 48 49.8831 67.9325 
1075 1 41.6 33.2554 73.1581 
1065 1 43.2 32.3316 75.7709 
1079 1 44.8 33.2554 73.1581 
1066 1 46.4 30.4841 73.1581 
1067 1 46.4 32.3316 75.7709 
1068 1 49.6 30.4841 73.1581 
1069 1 49.6 32.3316 75.7709 
1083 1 48 33.2554 73.1581 
1070 1 36.8 36.0267 73.1581 
1072 1 40 36.0267 73.1581 
1074 1 38.4 35.1029 75.7709 
1078 1 41.6 35.1029 75.7709 
1076 1 43.2 36.0267 73.1581 
1082 1 44.8 35.1029 75.7709 
1080 1 46.4 36.0267 73.1581 
1084 1 49.6 36.0267 73.1581 
1086 1 48 35.1029 75.7709 
1071 1 36.8 37.8742 75.7709 
1087 1 33.6 41.5692 73.1581 
1089 1 35.2 38.7979 73.1581 
1090 1 36.8 41.5692 73.1581 
1092 1 35.2 40.6455 75.7709 
1073 1 40 37.8742 75.7709 
1093 1 38.4 38.7979 73.1581 
1094 1 40 41.5692 73.1581 
1096 1 38.4 40.6455 75.7709 
1097 1 41.6 38.7979 73.1581 
1100 1 41.6 40.6455 75.7709 
1077 1 43.2 37.8742 75.7709 
1098 1 43.2 41.5692 73.1581 
1101 1 44.8 38.7979 73.1581 
1104 1 44.8 40.6455 75.7709 
1081 1 46.4 37.8742 75.7709 
1085 1 49.6 37.8742 75.7709 