ITEM: TIMESTEP
20000
ITEM: NUMBER OF ATOMS
5538
ITEM: BOX BOUNDS pp pp pp
0.0372549 99.9627
0.137726 99.8623
-0.66001 100.66
ITEM: ATOMS id type x y z 
11 1 40.4389 30.7926 0.297583 
87 1 42.0252 31.7163 2.77096 
1 1 43.5789 30.894 0.2066 
15 1 45.1783 31.7099 2.77197 
3 1 46.7416 30.9134 0.196286 
19 1 48.4262 31.658 2.79653 
5 1 49.9743 30.7215 0.257893 
22 1 48.2378 33.541 0.227015 
1375 1 37.1747 36.3074 0.0233805 
10 1 38.7733 33.6081 0.181332 
6 1 38.5793 37.0783 2.79842 
8 1 40.2933 34.4174 2.68237 
9 1 40.3815 36.2645 0.186582 
33 1 41.8085 37.0555 2.81887 
14 1 41.9486 33.4463 0.280398 
18 1 45.1089 33.5767 0.359767 
12 1 43.4787 34.4324 2.8292 
13 1 43.5319 36.2525 0.311093 
37 1 45.1029 37.1125 2.86283 
16 1 46.7489 34.3481 2.9938 
17 1 46.7174 36.2212 0.175579 
41 1 48.1808 37.1283 2.77389 
21 1 49.8437 36.1709 0.177334 
149 1 38.4373 49.9399 5.48266 
25 1 37.1569 39.8227 2.75568 
1396 1 35.7124 39.0504 0.0946024 
28 1 37.1528 41.7657 0.206082 
7 1 38.7318 39.0706 0.222567 
29 1 40.2753 39.8228 2.85347 
36 1 41.9142 39.014 0.256033 
32 1 40.2345 41.6953 0.266276 
34 1 43.4607 39.7102 2.87377 
40 1 45.107 39.0235 0.324864 
35 1 43.3681 41.7944 0.384316 
38 1 46.6572 39.8554 2.85574 
44 1 48.3618 38.9137 0.209161 
42 1 49.7973 39.8872 2.71257 
39 1 46.5167 41.7391 0.33206 
43 1 49.7975 41.6994 0.322272 
1418 1 32.3868 44.5087 0.101584 
1392 1 33.9856 41.6917 0.304323 
47 1 33.867 45.3538 2.81554 
23 1 35.46 42.7594 2.82993 
24 1 35.4404 44.4691 0.311175 
51 1 37.0435 45.3189 2.88104 
26 1 38.6028 42.5686 2.79719 
27 1 38.7037 44.5117 0.363572 
55 1 40.1363 45.4158 2.86495 
30 1 41.6588 42.5484 2.86601 
31 1 41.8564 44.5088 0.299868 
59 1 43.3103 45.2453 2.92239 
63 1 44.9947 42.5872 2.86867 
66 1 44.9902 44.5194 0.310999 
67 1 48.1659 42.7042 2.92999 
64 1 46.6013 45.3692 2.87117 
70 1 48.2032 44.4702 0.264157 
68 1 49.7367 45.3674 2.91066 
45 1 32.2782 48.1215 2.80601 
1414 1 30.8983 47.2391 0.170638 
46 1 32.4247 49.994 0.195505 
50 1 33.9463 47.1877 0.278417 
48 1 35.3531 48.1423 2.8845 
54 1 36.9974 47.2532 0.275372 
217 1 46.4235 48.9399 13.1723 
52 1 38.5044 48.1989 2.89324 
58 1 40.2094 47.327 0.297348 
213 1 43.1554 48.8771 13.2785 
221 1 49.6379 49.0296 13.1864 
56 1 41.8423 48.2438 2.88759 
62 1 43.3034 47.3203 0.224183 
60 1 44.9366 48.0416 2.93535 
216 1 46.4282 47.1525 10.709 
69 1 49.7281 47.2382 0.275418 
65 1 46.5115 47.2644 0.318037 
76 1 48.1378 48.0443 2.9164 
228 1 47.9605 50.0226 10.7204 
77 1 43.518 32.4852 8.17709 
91 1 45.0237 33.3737 5.49138 
2 1 46.7682 30.6607 5.55176 
78 1 48.3045 29.9396 8.0657 
79 1 46.6997 32.6005 8.03558 
4 1 49.9091 30.8641 5.49162 
81 1 49.8844 32.5438 7.98391 
95 1 48.2778 33.4213 5.44755 
82 1 37.1032 36.1398 5.31657 
84 1 40.1838 36.1542 5.41205 
86 1 38.7041 35.2968 7.97701 
90 1 41.8665 35.1858 8.07762 
88 1 43.3954 36.143 5.43766 
94 1 45.0107 35.2153 8.00008 
92 1 46.5627 36.123 5.52407 
96 1 49.8428 36.1445 5.31232 
98 1 48.2151 35.2506 8.04154 
83 1 37.1283 37.9563 7.9259 
101 1 35.5331 39.0005 5.36327 
104 1 35.4569 40.6752 7.97885 
102 1 37.0349 41.6917 5.32096 
99 1 34.0211 41.7781 5.35636 
85 1 40.351 37.9292 8.04493 
105 1 38.5597 38.8512 5.36225 
108 1 38.559 40.6816 7.93199 
106 1 40.0951 41.6324 5.52106 
109 1 41.7713 38.8291 5.49451 
112 1 41.7441 40.6151 8.0161 
89 1 43.3982 37.9963 8.03295 
113 1 44.9259 38.9058 5.54012 
116 1 44.8432 40.718 8.05874 
110 1 43.3702 41.6527 5.39911 
93 1 46.6353 38.0409 8.04887 
117 1 48.286 38.9754 5.37729 
120 1 48.1521 40.7268 8.07322 
97 1 49.7494 38.0059 7.99919 
114 1 46.5356 41.6609 5.38504 
118 1 49.6751 41.7853 5.45745 
123 1 32.4678 44.6445 5.36572 
100 1 33.9581 43.5544 7.97515 
103 1 36.985 43.4883 8.02569 
127 1 35.5361 44.4736 5.46402 
107 1 40.1998 43.4793 8.04205 
131 1 38.5784 44.4212 5.44474 
135 1 41.6652 44.4623 5.54033 
111 1 43.3457 43.4025 8.02044 
139 1 44.893 44.4173 5.40667 
115 1 46.5425 43.4806 8.09271 
119 1 49.7097 43.4601 8.12052 
143 1 48.0607 44.4484 5.51242 
121 1 30.7725 47.3187 5.52028 
126 1 32.2581 46.2577 7.98757 
122 1 30.6481 49.1082 8.09232 
147 1 32.1664 49.9213 5.44008 
151 1 44.7626 49.9611 5.42639 
125 1 33.8152 48.9751 8.01779 
124 1 33.8402 47.2685 5.40109 
128 1 37.0295 47.2499 5.46451 
129 1 36.8926 49.0766 8.093 
130 1 35.3463 46.2697 7.97231 
132 1 40.1634 47.2546 5.48489 
133 1 40.0984 48.9966 8.13594 
134 1 38.555 46.2575 8.04835 
138 1 41.6876 46.1999 8.13895 
218 1 44.861 46.2205 13.1984 
222 1 48.0373 46.2111 13.2652 
136 1 43.3425 47.2228 5.48388 
137 1 43.3082 49.1089 8.09405 
142 1 44.8724 46.2921 8.0237 
226 1 41.6326 49.9676 10.6881 
140 1 46.5626 47.2116 5.47409 
141 1 46.417 48.9588 8.14036 
144 1 49.7331 47.2731 5.48268 
145 1 49.6223 49.1499 8.10106 
146 1 48.1253 46.2579 8.09192 
220 1 49.6274 47.2462 10.6629 
153 1 43.4276 32.4242 13.1286 
156 1 49.711 30.7894 10.6511 
155 1 46.527 32.3814 13.3721 
154 1 46.5451 30.8336 10.564 
157 1 49.6742 32.5945 13.179 
171 1 48.0863 33.4129 10.5828 
158 1 37.2637 36.1229 10.5572 
160 1 40.3156 36.125 10.6816 
162 1 38.7319 35.2482 13.2106 
163 1 41.8194 33.3653 10.6974 
166 1 41.8468 35.171 13.2569 
167 1 44.9664 33.389 10.6597 
164 1 43.4225 36.0636 10.6184 
170 1 45.0065 35.1644 13.246 
168 1 46.5718 36.181 10.6604 
172 1 49.748 36.3504 10.6017 
174 1 48.1004 35.1659 13.1966 
177 1 35.695 39.0004 10.4818 
159 1 37.1226 37.9276 13.1193 
180 1 35.4818 40.6762 13.0748 
178 1 37.0277 41.7278 10.5317 
175 1 33.8566 41.6886 10.5083 
161 1 40.2401 37.8932 13.2497 
184 1 38.6247 40.6434 13.0492 
181 1 38.6648 38.8129 10.6237 
185 1 41.893 38.8481 10.6662 
182 1 40.1143 41.58 10.5571 
188 1 41.7913 40.6815 13.2443 
192 1 44.9643 40.7671 13.1976 
165 1 43.4658 37.9604 13.2271 
189 1 44.9225 38.9315 10.5333 
186 1 43.3849 41.6178 10.6691 
169 1 46.584 37.9514 13.2599 
196 1 48.0889 40.761 13.2571 
173 1 49.6995 37.9986 13.2592 
193 1 48.2352 38.96 10.639 
194 1 49.7972 41.6147 10.6846 
190 1 46.5482 41.7117 10.6334 
199 1 32.4434 44.4858 10.6278 
176 1 33.9267 43.4623 13.1994 
203 1 35.4453 44.3917 10.6414 
179 1 37.0077 43.3152 13.1762 
183 1 40.1299 43.3935 13.2751 
207 1 38.5928 44.3622 10.6066 
211 1 41.7865 44.3825 10.6056 
187 1 43.3801 43.4665 13.2001 
215 1 44.9064 44.4605 10.5859 
191 1 46.5042 43.5734 13.1705 
195 1 49.6234 43.3782 13.2778 
219 1 48.1196 44.4911 10.6256 
202 1 32.1395 46.2058 13.1949 
198 1 30.7478 49.0727 13.0439 
197 1 30.8536 47.2087 10.5565 
223 1 32.4197 49.9673 10.5055 
224 1 35.3827 49.9458 10.6083 
201 1 33.7996 48.9782 13.2 
200 1 33.8922 47.1804 10.5979 
205 1 36.9554 48.8976 13.1772 
204 1 36.9843 47.1521 10.5847 
206 1 35.2417 46.1883 13.209 
209 1 40.0182 49.0727 13.2345 
210 1 38.4535 46.2029 13.1554 
208 1 40.1391 47.0775 10.8352 
225 1 38.5286 49.9776 10.6789 
212 1 43.2237 47.1352 10.6229 
214 1 41.7162 46.1525 13.3231 
230 1 43.3826 30.7224 15.6746 
239 1 41.8033 33.3236 15.6957 
229 1 43.4195 32.571 18.3359 
232 1 46.3356 30.6683 16.0125 
231 1 46.6539 32.5558 18.3724 
233 1 49.7577 32.4679 18.3726 
324 1 49.7843 36.1697 20.9851 
234 1 37.0615 36.1019 15.7373 
236 1 40.3311 36.0491 15.7871 
238 1 38.4604 35.1406 18.3705 
243 1 44.9745 33.4053 15.7768 
240 1 43.3423 36.0476 15.7826 
246 1 44.8891 35.2249 18.4657 
242 1 41.6458 35.0683 18.3806 
247 1 48.0616 33.4162 15.7823 
244 1 46.487 36.1479 15.8741 
250 1 48.2083 35.1981 18.4287 
248 1 49.6349 36.0694 15.7851 
253 1 35.5371 38.8577 15.7892 
256 1 35.3258 40.629 18.3659 
254 1 36.9221 41.5145 15.788 
251 1 33.9855 41.5888 15.794 
235 1 36.9837 37.815 18.339 
257 1 38.5624 38.7804 15.7111 
260 1 38.4088 40.5451 18.3585 
258 1 40.0385 41.5121 15.7991 
237 1 40.0692 37.8144 18.3489 
264 1 41.6069 40.5928 18.3888 
261 1 41.6525 38.7947 15.9003 
265 1 44.8211 38.8872 15.8569 
268 1 44.7782 40.7177 18.4488 
241 1 43.1271 37.8303 18.4177 
262 1 43.2865 41.5858 15.8684 
269 1 48.0133 38.8748 15.9006 
245 1 46.4261 37.9165 18.4342 
249 1 49.6686 37.9341 18.41 
266 1 46.5078 41.6372 15.8955 
272 1 48.0098 40.605 18.5351 
275 1 32.1953 44.2659 15.7474 
279 1 35.3368 44.3545 15.8179 
252 1 33.62 43.3322 18.3921 
255 1 36.798 43.3566 18.4338 
283 1 38.4553 44.2934 15.8639 
259 1 40.0375 43.3639 18.5003 
287 1 41.6709 44.2562 15.787 
291 1 44.7982 44.3737 15.7591 
263 1 43.1416 43.4141 18.3878 
270 1 49.5811 41.5448 15.8726 
295 1 47.9963 44.3747 15.8244 
267 1 46.431 43.3517 18.4593 
271 1 49.5525 43.3997 18.5237 
273 1 30.5727 47.2238 15.6898 
278 1 31.9695 46.1579 18.2921 
274 1 30.4912 49.0063 18.2433 
299 1 32.2831 49.8363 15.7424 
276 1 33.6747 47.0582 15.7898 
280 1 36.9136 47.1518 15.7271 
281 1 36.8017 48.9623 18.4655 
282 1 35.3182 46.0969 18.4377 
277 1 33.5906 48.9383 18.375 
300 1 35.3061 49.8949 15.8322 
284 1 40.0276 47.1019 15.7699 
286 1 38.3694 46.1739 18.5331 
285 1 40.0753 48.8443 18.4944 
301 1 38.5017 49.9213 15.8701 
303 1 44.8483 49.8079 15.7983 
290 1 41.6141 46.1634 18.4215 
288 1 43.2257 46.9979 15.8775 
294 1 44.7676 46.1182 18.4479 
302 1 41.6401 49.759 15.9207 
289 1 43.2295 48.8557 18.3966 
292 1 46.481 47.1015 15.7415 
296 1 49.5849 47.1115 15.7829 
297 1 49.5916 48.8741 18.3806 
298 1 47.9333 46.141 18.3847 
293 1 46.3546 48.8317 18.4079 
369 1 46.3516 49.1315 23.5703 
306 1 46.8717 30.7509 20.9219 
310 1 36.85 36.0881 21.0242 
312 1 40.062 35.9738 20.8509 
319 1 44.984 33.2097 20.9684 
315 1 41.7753 33.384 21.0269 
316 1 43.2562 35.9816 21.0753 
323 1 48.2412 33.4555 21.1407 
320 1 46.4523 35.9746 20.9644 
420 1 48.0445 49.8697 26.2387 
329 1 35.3164 38.8786 20.8501 
330 1 36.915 41.531 20.9606 
327 1 33.8666 41.5612 21.0022 
333 1 38.4301 38.765 21.0596 
334 1 40.0023 41.35 20.9769 
337 1 41.5228 38.6608 21.0337 
341 1 44.7835 38.6889 21.076 
338 1 43.154 41.4389 20.9893 
345 1 47.8931 38.817 21.028 
342 1 46.3954 41.5599 21.1484 
346 1 49.6075 41.6319 21.1785 
351 1 32.1451 44.3694 20.9591 
355 1 35.21 44.2483 20.9797 
359 1 38.458 44.1779 21.0728 
363 1 41.5929 44.1671 21.0446 
367 1 44.737 44.2858 21.0543 
371 1 47.8942 44.2991 21.0494 
349 1 30.6199 47.1234 20.8812 
375 1 32.1269 49.8375 20.8879 
376 1 35.262 49.7956 20.9698 
352 1 33.6818 47.0142 20.91 
356 1 36.7521 47.0367 20.9969 
360 1 39.9484 46.988 21.1399 
377 1 38.4095 49.7332 21.0557 
364 1 43.1817 46.9554 21.0297 
378 1 41.5941 49.7438 21.1483 
379 1 44.6465 49.7981 21.0789 
368 1 46.3718 47.0986 21.0044 
372 1 49.5295 47.078 21.057 
309 1 49.6693 32.4271 23.6205 
305 1 43.4445 32.4416 23.6096 
381 1 43.6339 30.736 26.1297 
385 1 41.8672 33.2661 26.208 
387 1 45.0178 33.3347 26.2514 
307 1 46.6385 32.399 23.6328 
382 1 46.7732 30.5231 26.125 
304 1 47.9686 49.9446 15.7872 
3195 1 49.8273 30.5766 26.0154 
383 1 36.9323 36.0967 26.0674 
314 1 38.4943 35.2925 23.4822 
384 1 40.1016 35.8596 26.1674 
318 1 41.7802 35.0686 23.5803 
322 1 44.9124 35.0959 23.6426 
386 1 43.2303 35.9417 26.247 
390 1 49.6679 35.9816 26.3516 
389 1 48.1356 33.2315 26.1702 
326 1 48.0369 35.1774 23.618 
388 1 46.4559 36.039 26.2463 
311 1 36.928 37.956 23.5185 
332 1 35.3999 40.6145 23.5356 
392 1 35.3534 38.8912 26.076 
313 1 39.991 37.7694 23.6074 
336 1 38.456 40.5484 23.6378 
394 1 38.4973 38.7258 26.1749 
395 1 40.0342 41.5217 26.3059 
340 1 41.7119 40.5028 23.5871 
396 1 41.6835 38.6939 26.2947 
317 1 43.2769 37.8149 23.6955 
344 1 44.8091 40.5126 23.5991 
398 1 44.8379 38.749 26.2331 
397 1 43.1836 41.528 26.2102 
325 1 49.6155 37.8933 23.6554 
321 1 46.4425 37.8444 23.7031 
348 1 48.0657 40.629 23.6634 
400 1 48.0462 38.8348 26.2542 
401 1 49.571 41.6502 26.151 
399 1 46.3578 41.4526 26.2743 
403 1 32.1693 44.403 26.1798 
393 1 36.7798 41.4316 26.1773 
391 1 33.6831 41.4656 26.0889 
331 1 36.8023 43.2419 23.639 
328 1 33.6747 43.3077 23.5404 
405 1 35.208 44.2399 26.1457 
335 1 40.0713 43.2895 23.7242 
407 1 38.3587 44.2523 26.3142 
409 1 41.5938 44.2754 26.3728 
339 1 43.1702 43.3972 23.6599 
411 1 44.685 44.1934 26.3827 
347 1 49.5178 43.4711 23.6821 
343 1 46.3126 43.4008 23.6826 
413 1 47.9196 44.3216 26.142 
415 1 32.081 49.7551 26.1623 
350 1 30.6152 48.9437 23.4528 
354 1 32.0534 46.1056 23.5544 
402 1 30.5366 47.1624 26.1237 
358 1 35.1812 46.1257 23.5882 
357 1 36.8265 48.8315 23.6097 
353 1 33.5751 48.7614 23.5545 
404 1 33.577 47.0416 26.2511 
406 1 36.7468 46.9583 26.2236 
416 1 35.1375 49.6806 26.1371 
361 1 40.0552 48.9557 23.7076 
408 1 40.006 46.9895 26.3155 
362 1 38.4261 46.0438 23.7709 
417 1 38.5077 49.6942 26.2279 
419 1 44.8287 49.8418 26.309 
366 1 41.6544 46.0849 23.789 
365 1 43.207 48.8297 23.7113 
370 1 44.8484 46.138 23.5793 
410 1 43.2762 46.9639 26.2445 
373 1 49.557 48.883 23.6136 
412 1 46.3254 47.0922 26.3041 
414 1 49.6464 47.0509 26.1815 
418 1 41.6145 49.796 26.3392 
374 1 48.021 46.2212 23.7962 
380 1 47.9646 49.8358 20.9934 
3049 1 49.3077 30.6966 15.5446 
421 1 43.382 32.2636 28.8467 
471 1 44.8765 33.2224 31.5252 
467 1 41.8036 33.2625 31.404 
458 1 46.6055 30.5814 31.432 
422 1 46.4587 32.3456 28.704 
460 1 49.7391 30.5556 31.5395 
475 1 48.0096 33.2896 31.4359 
423 1 49.6636 32.2139 28.8978 
462 1 36.8491 36.009 31.4379 
426 1 38.5827 35.1002 28.8324 
464 1 40.1206 35.9829 31.4292 
428 1 41.7488 35.0668 28.886 
430 1 44.8262 34.9819 28.8466 
468 1 43.269 36.0148 31.4639 
432 1 47.9779 35.0539 28.8691 
472 1 46.3797 35.8861 31.4628 
476 1 49.6468 35.9965 31.4472 
424 1 36.8963 37.7102 28.7188 
435 1 35.2541 40.5916 28.9086 
481 1 35.2191 38.7051 31.4082 
479 1 33.695 41.4508 31.4754 
425 1 40.0916 37.7694 28.8576 
437 1 38.3058 40.5109 28.8268 
485 1 38.3052 38.7565 31.4406 
439 1 41.5839 40.6148 28.7898 
489 1 41.6221 38.833 31.3886 
427 1 43.3261 37.799 28.8675 
441 1 44.7103 40.6134 28.8867 
493 1 44.8284 38.8446 31.5217 
490 1 43.1432 41.624 31.4406 
429 1 46.3511 37.8154 28.8892 
497 1 48.0378 38.7638 31.4114 
443 1 48.0359 40.6052 28.7812 
431 1 49.6272 37.8781 28.8157 
494 1 46.4463 41.5065 31.3886 
503 1 32.0967 44.2653 31.2852 
482 1 36.8364 41.4204 31.4795 
433 1 33.5547 43.1716 28.6821 
434 1 36.8145 43.3035 28.8375 
507 1 35.1879 44.1713 31.3557 
486 1 39.9974 41.4505 31.4771 
436 1 39.988 43.4278 28.9436 
511 1 38.3929 44.1477 31.4469 
515 1 41.6059 44.2988 31.5109 
438 1 43.1542 43.288 28.8203 
519 1 44.9695 44.3152 31.4776 
498 1 49.6263 41.5537 31.3255 
442 1 49.5648 43.356 28.8309 
523 1 48.085 44.25 31.4217 
440 1 46.4963 43.3034 28.9214 
444 1 30.5685 48.8534 28.7922 
446 1 32.0199 46.1623 28.8056 
501 1 30.4986 47.0866 31.3176 
527 1 32.1122 49.6972 31.4431 
445 1 33.6243 48.8465 28.8431 
504 1 33.6152 47.0026 31.41 
447 1 36.8019 48.843 28.8056 
448 1 35.1897 46.0079 28.7959 
508 1 36.7156 47.0029 31.3725 
529 1 38.3157 49.7909 31.4912 
449 1 39.995 48.8356 28.8626 
450 1 38.4189 46.1213 28.8164 
512 1 40.0137 47.1421 31.4609 
640 1 46.4842 47.0917 41.7949 
452 1 41.6388 46.1237 28.9363 
454 1 44.8117 46.1165 28.9262 
516 1 43.2663 47.014 31.4696 
451 1 43.192 48.9667 28.8854 
642 1 49.5429 47.2057 41.6985 
453 1 46.5079 48.8672 28.9094 
456 1 48.162 46.1068 28.7606 
520 1 46.5291 47.0738 31.4979 
524 1 49.6111 47.07 31.4107 
455 1 49.6764 48.9984 28.8532 
457 1 43.4199 32.3817 34.2519 
534 1 43.279 30.478 36.6777 
459 1 46.4838 32.4049 34.0195 
536 1 46.3161 30.6482 36.4391 
461 1 49.6242 32.3949 33.9632 
3341 1 49.4094 30.6773 36.5951 
538 1 36.9265 36.0774 36.7467 
466 1 38.4231 35.1315 34.1314 
540 1 40.0433 36.0397 36.6093 
543 1 41.8514 33.2272 36.7687 
547 1 44.9215 33.2769 36.6614 
470 1 41.5946 35.0274 33.9975 
474 1 44.8768 35.104 34.0921 
544 1 43.1691 36.0291 36.594 
551 1 47.9928 33.3774 36.6335 
552 1 49.6109 36.1627 36.5784 
478 1 47.9545 35.1127 34.0188 
548 1 46.4024 36.0567 36.5844 
463 1 36.7433 37.8238 34.0263 
484 1 35.1349 40.6102 34.0533 
557 1 35.1547 38.8691 36.724 
558 1 36.7639 41.5473 36.6616 
465 1 39.9308 37.7737 33.9681 
488 1 38.3203 40.5974 34.0996 
561 1 38.4494 38.7293 36.5453 
562 1 39.8942 41.4707 36.5716 
492 1 41.6004 40.5895 34.0261 
565 1 41.5452 38.7983 36.5216 
469 1 43.0983 37.7704 34.0296 
496 1 44.7784 40.6202 34.0659 
569 1 44.7094 38.8543 36.618 
473 1 46.3042 37.9306 34.0614 
500 1 48.0707 40.6781 33.9666 
573 1 48.0621 38.8559 36.6541 
477 1 49.5507 37.8482 34.0919 
574 1 49.6278 41.6068 36.6268 
570 1 46.4416 41.6335 36.6115 
579 1 32.156 44.431 36.648 
555 1 33.6641 41.6881 36.7182 
480 1 33.6105 43.5199 33.963 
483 1 36.8384 43.2552 34.0539 
583 1 35.2312 44.2746 36.603 
487 1 39.9882 43.3401 34.0089 
587 1 38.4283 44.2647 36.6181 
566 1 43.1472 41.6626 36.5818 
591 1 41.6117 44.3107 36.6347 
491 1 43.234 43.364 34.0533 
595 1 44.7924 44.4105 36.619 
495 1 46.4655 43.4589 34.0201 
499 1 49.7091 43.4967 34.1051 
599 1 48.1011 44.4026 36.5664 
502 1 30.6267 49.0293 34.0821 
506 1 32.0095 46.2071 33.9927 
577 1 30.4754 47.1818 36.7281 
603 1 32.105 49.9152 36.7007 
505 1 33.6219 48.913 34.0903 
509 1 36.831 48.9526 34.0679 
510 1 35.1971 46.2165 34.073 
580 1 33.5956 47.0881 36.6253 
584 1 36.822 47.01 36.6365 
607 1 44.8701 49.7945 36.6998 
645 1 38.4066 49.9033 41.8341 
513 1 39.973 48.8351 34.1484 
514 1 38.3701 46.0637 34.0589 
588 1 39.9463 46.9697 36.6758 
518 1 41.6364 46.0824 34.0739 
517 1 43.3033 48.9311 34.0743 
522 1 44.829 46.0371 34.0351 
592 1 43.1732 47.1597 36.6276 
646 1 41.7282 49.8513 41.8979 
521 1 46.3661 48.9527 34.1644 
525 1 49.6367 48.9217 34.0146 
526 1 48.0751 46.253 33.9275 
596 1 46.4724 47.0462 36.6021 
600 1 49.5712 47.0936 36.6096 
602 1 47.9609 46.1994 39.2244 
533 1 43.3738 32.2863 39.206 
609 1 46.681 30.6678 41.806 
535 1 46.4059 32.3383 39.259 
537 1 49.5774 32.316 39.2842 
610 1 49.7946 30.7114 41.8644 
611 1 37.1219 36.1788 42.0105 
542 1 38.479 35.3097 39.2532 
612 1 40.1688 36.1042 41.9301 
613 1 41.839 33.3255 41.7737 
615 1 44.9434 33.3786 41.8181 
546 1 41.6292 35.1097 39.1801 
550 1 44.8412 34.9735 39.1981 
614 1 43.3287 36.1094 41.7049 
617 1 48.0915 33.429 41.8784 
618 1 49.6664 36.132 41.8605 
554 1 47.9846 35.0692 39.2912 
616 1 46.4871 36.1439 41.9352 
539 1 36.8017 37.9695 39.1918 
560 1 35.1757 40.6541 39.2462 
620 1 35.5167 38.926 41.8388 
621 1 36.9072 41.6134 41.8215 
619 1 33.822 41.6702 41.9076 
541 1 40.0041 37.9092 39.2948 
564 1 38.3557 40.663 39.281 
622 1 38.5551 38.9267 41.91 
568 1 41.6219 40.7014 39.184 
623 1 40.1201 41.5875 41.8103 
624 1 41.7493 38.8279 41.8455 
545 1 43.1058 37.9334 39.1129 
572 1 44.8333 40.7429 39.1874 
626 1 44.8857 38.9176 41.6632 
625 1 43.2156 41.6063 41.8407 
549 1 46.3979 37.8616 39.225 
576 1 48.0146 40.753 39.274 
628 1 47.9643 38.9224 41.8744 
553 1 49.577 37.9938 39.2481 
627 1 46.4424 41.6978 41.7952 
629 1 49.6118 41.606 41.7491 
631 1 32.0472 44.4032 41.8772 
556 1 33.5587 43.571 39.3484 
559 1 36.8093 43.3685 39.2641 
633 1 35.2286 44.3961 41.8163 
563 1 39.9664 43.3515 39.1435 
635 1 38.5429 44.3046 41.7921 
637 1 41.6735 44.3858 41.9122 
567 1 43.2014 43.4324 39.2193 
639 1 44.9038 44.34 41.8324 
571 1 46.4362 43.4719 39.244 
575 1 49.579 43.5036 39.1548 
641 1 48.0631 44.2339 41.8254 
578 1 30.4469 48.8944 39.3361 
582 1 32.0575 46.2356 39.3154 
630 1 30.5415 47.1838 41.8952 
530 1 41.5849 49.8134 31.5582 
581 1 33.582 48.8485 39.2818 
632 1 33.6649 47.1273 41.8596 
585 1 36.8691 48.8828 39.322 
586 1 35.2125 46.1239 39.2189 
634 1 36.8503 47.0047 41.885 
528 1 35.1693 49.7201 31.4928 
589 1 40.1083 48.9148 39.2994 
590 1 38.3713 46.1638 39.1621 
636 1 39.9671 47.0933 41.784 
531 1 44.7893 49.8149 31.5158 
638 1 43.2458 47.0597 41.8512 
594 1 41.617 46.1543 39.2615 
593 1 43.26 48.8556 39.3028 
598 1 44.89 46.1274 39.2106 
643 1 32.0545 49.907 41.9286 
597 1 46.4748 49.0497 39.2344 
601 1 49.618 49.0903 39.1493 
604 1 35.1885 49.8128 36.72 
532 1 48.0518 49.8374 31.4619 
605 1 38.4421 49.7374 36.6958 
606 1 41.6851 49.8128 36.5891 
644 1 35.3035 49.7519 41.8378 
608 1 48.0625 49.8883 36.6177 
647 1 44.9952 49.87 41.8227 
648 1 48.0834 49.95 41.7383 
649 1 43.5132 32.6246 44.4609 
686 1 46.2914 30.7209 46.8929 
650 1 46.5162 32.5342 44.4306 
651 1 49.7638 32.5481 44.363 
688 1 49.3929 30.9529 46.9605 
690 1 36.96 36.2815 47.1913 
654 1 38.7321 35.303 44.7255 
692 1 40.1343 36.2603 47.0978 
656 1 41.8634 35.2616 44.3851 
695 1 41.7633 33.4674 47.0061 
699 1 44.9512 33.4869 47.0468 
658 1 44.9913 35.3023 44.4468 
696 1 43.1875 36.3351 46.9734 
703 1 47.9188 33.575 47.0233 
660 1 48.0839 35.3281 44.4478 
700 1 46.2897 36.3628 47.0473 
704 1 49.5349 36.2894 47.0526 
652 1 36.955 37.9822 44.5078 
663 1 35.519 40.7638 44.3302 
709 1 35.4029 38.9207 47.0362 
710 1 36.8481 41.6647 47.1501 
653 1 40.1406 38.001 44.5405 
665 1 38.5278 40.7111 44.4725 
713 1 38.4825 38.9683 47.1101 
717 1 41.6395 39.005 46.9188 
714 1 40.0233 41.7357 47.1108 
667 1 41.7406 40.72 44.4495 
655 1 43.4141 38.0162 44.316 
669 1 44.9404 40.7524 44.4479 
721 1 44.7794 39.0017 47.0515 
718 1 43.2639 41.7259 47.0255 
659 1 49.6673 37.9811 44.3403 
657 1 46.4643 38.028 44.4739 
671 1 48.038 40.7725 44.4046 
725 1 47.9882 38.9631 47.0536 
722 1 46.395 41.6996 47.0358 
726 1 49.5579 41.5791 46.9341 
731 1 32.2333 44.3623 47.2098 
707 1 33.7852 41.5782 46.9912 
661 1 33.7167 43.5443 44.3843 
662 1 36.9074 43.4356 44.4916 
735 1 35.3121 44.4185 47.0438 
664 1 40.0487 43.4353 44.5076 
739 1 38.3921 44.4748 47.1391 
743 1 41.6566 44.5315 47.1111 
666 1 43.2409 43.4068 44.4984 
747 1 44.8157 44.4037 47.1041 
668 1 46.4267 43.4608 44.4258 
751 1 48.0309 44.2846 46.88 
670 1 49.6726 43.4482 44.3959 
672 1 30.5428 48.872 44.5868 
674 1 32.146 46.2797 44.4737 
729 1 30.5972 47.0955 47.277 
756 1 35.201 49.8215 46.9754 
673 1 33.666 48.9431 44.408 
675 1 37.0122 48.9625 44.4434 
676 1 35.4111 46.246 44.4651 
732 1 33.707 47.1393 47.107 
736 1 36.9248 47.2033 47.0819 
677 1 40.0245 48.9657 44.4117 
678 1 38.5229 46.167 44.5097 
740 1 40.0046 47.2056 47.111 
830 1 47.9543 46.3029 54.8104 
680 1 41.6232 46.2449 44.5418 
679 1 43.2495 48.9344 44.3918 
682 1 44.7848 46.0555 44.4342 
744 1 43.3336 47.2599 47 
755 1 32.1165 49.8972 47.0982 
757 1 38.4804 49.8759 47.1553 
681 1 46.3703 48.9092 44.3677 
683 1 49.5851 49.0476 44.3072 
684 1 47.9284 46.2897 44.373 
748 1 46.3477 47.0849 47.0138 
752 1 49.5461 47.1588 47.0094 
821 1 43.2 49.0484 54.954 
685 1 43.3848 32.482 49.5929 
687 1 46.5754 32.4089 49.5484 
689 1 49.6603 32.6388 49.6118 
694 1 38.5939 35.3764 49.7015 
768 1 40.182 36.2595 52.2889 
698 1 41.7595 35.2209 49.6363 
775 1 44.9672 33.3845 52.1411 
771 1 41.9385 33.5123 52.1392 
702 1 44.8156 35.2178 49.6499 
772 1 43.4249 36.1436 52.3209 
779 1 48.0054 33.4776 52.1592 
706 1 47.9068 35.3335 49.6337 
776 1 46.5676 36.2295 52.1694 
780 1 49.6457 36.2391 52.1976 
691 1 36.8783 38.055 49.7196 
712 1 35.2473 40.8492 49.7151 
693 1 40.1527 38.0735 49.6449 
716 1 38.3947 40.7216 49.6177 
789 1 38.5622 38.8911 52.2389 
720 1 41.6777 40.738 49.6012 
793 1 41.7562 38.9122 52.2708 
697 1 43.2003 37.9977 49.631 
724 1 44.7721 40.8142 49.6568 
797 1 44.8448 39.0383 52.1946 
794 1 43.266 41.7637 52.279 
701 1 46.3821 38.0868 49.6813 
728 1 47.972 40.787 49.6199 
801 1 48.1518 39.0293 52.1736 
705 1 49.6107 38.0818 49.5698 
802 1 49.5822 41.7674 52.1278 
807 1 32.2236 44.379 52.2031 
786 1 36.8827 41.7313 52.3183 
783 1 33.7421 41.6413 52.3532 
708 1 33.7557 43.5149 49.7849 
711 1 36.907 43.4952 49.6767 
811 1 35.3111 44.3774 52.2836 
790 1 40.0533 41.6919 52.1316 
715 1 40.0515 43.5481 49.6159 
819 1 41.6886 44.4761 52.2461 
719 1 43.1959 43.5185 49.5699 
823 1 44.8399 44.4502 52.1654 
798 1 46.4796 41.731 52.1713 
723 1 46.3963 43.544 49.5863 
727 1 49.3973 43.5135 49.5488 
827 1 47.9592 44.5482 52.2148 
730 1 30.547 49.04 49.7125 
734 1 32.2032 46.2869 49.8025 
805 1 30.6718 47.1745 52.3415 
829 1 49.5253 49.0576 54.8579 
826 1 44.8624 46.3299 54.8655 
733 1 33.6664 49.0221 49.6729 
737 1 36.8581 49.0033 49.6872 
738 1 35.2535 46.2507 49.6614 
812 1 36.7955 47.1294 52.3067 
808 1 33.6663 47.1589 52.3726 
741 1 40.0784 48.9676 49.7094 
742 1 38.5021 46.2688 49.6596 
816 1 40.0566 47.2224 52.2848 
746 1 41.7784 46.3813 49.6608 
745 1 43.2474 49.1873 49.6436 
750 1 44.7574 46.4093 49.6348 
820 1 43.2482 47.1594 52.3296 
825 1 46.3159 49.1268 54.8599 
749 1 46.4881 49.0377 49.6222 
753 1 49.5698 48.992 49.6232 
754 1 47.8412 46.2373 49.6176 
824 1 46.3413 47.2547 52.2234 
828 1 49.561 47.1954 52.2332 
822 1 41.5953 46.302 54.8905 
761 1 43.4694 32.7454 54.7859 
763 1 46.5524 32.5529 54.817 
765 1 49.6766 32.5993 54.8757 
766 1 37.0875 36.2291 52.3177 
770 1 38.675 35.4142 54.9396 
774 1 41.8036 35.2907 54.8109 
778 1 45.0412 35.2651 54.6661 
782 1 48.0395 35.3129 54.7815 
785 1 35.398 38.9875 52.2586 
767 1 36.968 38.0783 54.8021 
788 1 35.3157 40.8217 54.9276 
769 1 40.1487 37.9817 54.9383 
792 1 38.4036 40.7342 54.8037 
796 1 41.6904 40.753 54.8579 
773 1 43.3127 37.9654 54.8882 
800 1 44.8957 40.8681 54.7653 
777 1 46.5256 38.194 54.7858 
781 1 49.6741 38.0275 54.8034 
804 1 48.1626 40.8222 54.7577 
784 1 33.7235 43.5427 54.8616 
787 1 36.8693 43.4892 54.8968 
815 1 38.5227 44.4346 52.2491 
791 1 40.081 43.521 54.8211 
795 1 43.2012 43.5341 54.8739 
803 1 49.6289 43.624 54.7217 
799 1 46.4026 43.5428 54.794 
806 1 30.6775 48.9216 54.9005 
810 1 32.0655 46.2009 54.9655 
813 1 36.9401 49.0184 55.002 
809 1 33.7416 48.9576 54.7875 
814 1 35.2463 46.1594 54.884 
818 1 38.5276 46.2171 54.8984 
817 1 40.0657 49.0443 54.9173 
758 1 41.603 49.8731 47.0149 
836 1 47.9707 49.9491 52.2589 
834 1 41.5767 49.8486 52.3632 
831 1 32.1342 49.8466 52.2666 
835 1 44.7974 49.9854 52.2382 
832 1 35.2868 49.7879 52.3202 
759 1 44.8438 49.9275 47.0328 
833 1 38.3775 49.8152 52.2948 
760 1 47.9398 49.8968 46.9753 
838 1 46.0465 30.9249 57.1332 
837 1 43.3952 32.6771 60.1376 
839 1 46.4202 32.7036 59.8705 
841 1 49.5063 32.5748 59.9454 
985 1 38.3446 49.9272 62.6658 
907 1 32.191 49.9453 57.4777 
842 1 37.1304 36.1913 57.3979 
844 1 40.2084 36.1517 57.4858 
846 1 38.5338 35.4067 60.1838 
851 1 44.8448 33.6696 57.3585 
850 1 41.6877 35.3464 60.0736 
854 1 44.881 35.431 60.1347 
848 1 43.3036 36.2021 57.5209 
847 1 41.8325 33.4919 57.5004 
855 1 47.8895 33.6198 57.3391 
858 1 47.9347 35.4093 59.967 
852 1 46.3827 36.3593 57.3443 
856 1 49.6289 36.2172 57.4178 
843 1 36.8866 38.0258 60.0046 
864 1 35.2245 40.8525 60.0392 
861 1 35.3977 38.9698 57.4504 
865 1 38.4132 38.9078 57.3509 
845 1 39.9895 38.0313 60.1287 
868 1 38.5039 40.692 60.0268 
872 1 41.6952 40.8874 60.0101 
849 1 43.2417 38.0935 60.0259 
876 1 44.8395 40.8767 59.9311 
869 1 41.5087 38.8989 57.4988 
870 1 43.2388 41.746 57.4583 
873 1 44.8043 39.0474 57.4172 
857 1 49.6057 38.013 60.0781 
853 1 46.3257 38.0858 60.0086 
880 1 48.0662 40.7616 60.0919 
877 1 48.0875 38.9701 57.3592 
883 1 32.1268 44.4345 57.5563 
862 1 36.8466 41.6375 57.4943 
887 1 35.1844 44.4086 57.4622 
860 1 33.7862 43.5138 60.0756 
863 1 36.9478 43.5052 60.0502 
859 1 33.7033 41.6608 57.3696 
866 1 40.091 41.6834 57.4675 
891 1 38.3215 44.5012 57.4248 
867 1 40.0711 43.6531 60.0435 
899 1 44.9225 44.4102 57.5713 
895 1 41.5971 44.5042 57.4103 
871 1 43.2124 43.6109 60.1636 
840 1 49.1306 30.8456 57.361 
878 1 49.6242 41.8306 57.4147 
875 1 46.4953 43.6354 60.1116 
879 1 49.6749 43.6636 60.0418 
903 1 48.033 44.6066 57.4317 
882 1 30.5757 48.9514 60.2767 
886 1 32.1941 46.3337 60.0842 
881 1 30.667 47.3566 57.6017 
1056 1 49.608 47.2769 67.8203 
1048 1 43.2731 47.2897 67.9688 
885 1 33.7171 48.9243 60.154 
889 1 36.893 49.0795 60.1194 
890 1 35.2583 46.1512 60.073 
884 1 33.6785 47.2087 57.4777 
888 1 36.8254 47.2158 57.5232 
893 1 40.0618 49.0963 60.1494 
894 1 38.4405 46.3677 60.0964 
892 1 40.0195 47.1977 57.4829 
1057 1 49.6894 49.1541 70.4204 
898 1 41.6597 46.356 60.1141 
897 1 43.2128 49.1521 60.1919 
902 1 44.8195 46.3309 60.2071 
896 1 43.1487 47.1181 57.476 
901 1 46.4223 48.9935 60.0688 
906 1 48.0593 46.4275 60.126 
905 1 49.6114 49.0224 60.0177 
900 1 46.428 47.239 57.4862 
1063 1 44.862 50.0082 67.9312 
913 1 43.2797 32.6466 65.259 
908 1 35.2243 49.9261 57.4605 
914 1 46.1775 30.9611 62.3503 
915 1 46.329 32.5722 65.08 
917 1 49.3843 32.4776 65.2181 
918 1 36.9984 36.2579 62.6984 
920 1 40.1232 36.3095 62.7218 
922 1 38.5372 35.4279 65.2514 
927 1 44.7899 33.6753 62.6001 
923 1 41.729 33.5591 62.6364 
926 1 41.7884 35.2768 65.3553 
924 1 43.2105 36.3588 62.6088 
930 1 44.8572 35.4608 65.2413 
931 1 47.8875 33.5369 62.5396 
928 1 46.4329 36.4119 62.694 
934 1 47.9532 35.3371 65.1452 
932 1 49.6073 36.2797 62.6414 
919 1 36.9689 38.0522 65.297 
937 1 35.3591 38.9833 62.5649 
940 1 35.3898 40.7841 65.2306 
921 1 40.1979 38.0849 65.2677 
941 1 38.4669 38.9239 62.6828 
944 1 38.4578 40.7975 65.2534 
945 1 41.6078 39.0495 62.6426 
948 1 41.6012 40.7958 65.342 
925 1 43.1921 38.2077 65.2931 
949 1 44.7767 39.1431 62.6179 
952 1 44.7554 40.924 65.2751 
946 1 43.2124 41.8453 62.8117 
933 1 49.5421 38.0769 65.2104 
929 1 46.4317 38.1951 65.3137 
953 1 47.9463 39.0573 62.6203 
956 1 48.0177 40.8639 65.2389 
959 1 32.2063 44.5087 62.6073 
938 1 36.9421 41.6321 62.6821 
935 1 33.7074 41.7304 62.7609 
936 1 33.5182 43.4591 65.3396 
939 1 36.8839 43.4504 65.2751 
963 1 35.3024 44.3434 62.7443 
942 1 39.9845 41.7351 62.7189 
943 1 40.02 43.4943 65.2629 
967 1 38.4359 44.5429 62.6912 
971 1 41.6112 44.683 62.6413 
947 1 43.1138 43.7249 65.2499 
975 1 44.8229 44.6977 62.8217 
954 1 49.582 41.8519 62.6139 
950 1 46.4346 41.9199 62.7312 
951 1 46.3848 43.6972 65.3295 
979 1 47.9716 44.6246 62.7676 
955 1 49.6396 43.5708 65.2194 
957 1 30.5192 47.2284 62.8337 
958 1 30.6561 49.0098 65.3143 
962 1 32.085 46.2082 65.3368 
960 1 33.632 47.2475 62.7875 
961 1 33.6624 48.9945 65.4716 
964 1 36.8455 47.2617 62.7779 
965 1 36.7492 49.0955 65.3494 
966 1 35.2452 46.2219 65.401 
968 1 39.969 47.3541 62.7638 
969 1 39.8222 49.1329 65.4209 
970 1 38.3967 46.3062 65.3759 
1052 1 46.4678 47.1769 67.9776 
974 1 41.6348 46.5307 65.3082 
972 1 43.1478 47.4123 62.7521 
973 1 43.2286 49.1528 65.3183 
978 1 44.822 46.4636 65.3061 
981 1 49.6038 49.1129 65.3468 
976 1 46.431 47.3998 62.7674 
977 1 46.3859 49.0388 65.3188 
980 1 49.5419 47.2268 62.7207 
982 1 48.0209 46.3825 65.3505 
1058 1 48.0682 46.3722 70.4931 
989 1 43.4925 32.686 70.3362 
993 1 49.6055 32.5548 70.5679 
990 1 45.7657 31.0821 67.7795 