ITEM: TIMESTEP
10000
ITEM: NUMBER OF ATOMS
5538
ITEM: BOX BOUNDS pp pp pp
0 100
0 100
0 100
ITEM: ATOMS id type x y z 
11 1 40.1421 31.0881 0.893804 
10 1 38.6367 33.821 0.655277 
87 1 41.9644 31.6117 3.27162 
1 1 43.3298 30.7164 0.785401 
15 1 45.001 31.5183 3.36666 
3 1 46.5055 30.5408 0.802152 
19 1 48.2093 31.4268 3.45733 
223 1 32.1591 49.9715 11.0645 
1375 1 36.881 36.4338 0.737017 
6 1 38.5397 37.0163 3.38687 
8 1 40.3923 34.3833 3.3454 
9 1 40.1933 36.425 0.813585 
33 1 41.8567 37.0399 3.46491 
14 1 41.7959 33.6125 0.768751 
12 1 43.497 34.3331 3.45057 
13 1 43.3188 36.1001 0.823969 
18 1 44.9557 33.3574 0.929061 
37 1 44.9868 37.1347 3.55134 
16 1 46.5542 34.1269 3.44089 
22 1 48.1382 33.2375 0.860541 
17 1 46.62 36.025 0.875517 
41 1 48.2138 36.9178 3.43097 
21 1 49.7542 36.0249 0.866086 
20 1 49.6579 34.1628 3.3591 
25 1 36.9208 39.9401 3.32162 
1396 1 35.4304 39.132 0.615713 
28 1 36.922 41.8029 0.757681 
1392 1 33.8472 41.916 0.667995 
7 1 38.5744 39.0783 0.786242 
29 1 40.1837 39.7574 3.35967 
32 1 40.2241 41.6692 0.779473 
36 1 41.7977 38.9815 0.896952 
34 1 43.4127 39.6954 3.4235 
40 1 44.9719 38.8043 0.820258 
35 1 43.3953 41.684 0.750035 
38 1 46.5933 39.8159 3.39637 
44 1 48.1415 38.7628 0.920921 
42 1 49.713 39.6377 3.45002 
43 1 49.7086 41.6039 0.888203 
39 1 46.5788 41.6106 0.857462 
1418 1 32.1282 44.6131 0.83393 
47 1 33.8941 45.2587 3.41271 
23 1 35.3651 42.5484 3.39714 
24 1 35.4084 44.54 0.902803 
51 1 36.9789 45.3311 3.45421 
26 1 38.6375 42.5841 3.31251 
27 1 38.5302 44.486 0.786802 
55 1 40.0808 45.3229 3.32874 
30 1 41.8673 42.5946 3.21386 
31 1 41.7524 44.5404 0.85367 
59 1 43.1981 45.394 3.36075 
63 1 45.0377 42.6405 3.38126 
66 1 44.9512 44.4946 0.958646 
67 1 48.1737 42.5007 3.45786 
64 1 46.4678 45.374 3.44048 
70 1 48.0953 44.4058 0.893319 
68 1 49.6972 45.3602 3.36661 
45 1 32.0879 47.7645 3.43675 
1414 1 30.451 47.4164 0.76981 
224 1 35.3529 49.852 11.0852 
50 1 33.7402 47.2957 0.956568 
48 1 35.2453 48.1702 3.39953 
54 1 36.8685 47.2818 0.940871 
152 1 48.0676 49.9207 5.87932 
52 1 38.4715 48.0892 3.39966 
58 1 40.0713 47.2885 0.835776 
53 1 38.516 49.9666 0.925629 
56 1 41.6006 48.2164 3.45656 
57 1 41.6957 49.988 0.933079 
62 1 43.1591 47.3571 0.900479 
60 1 44.8252 48.0605 3.44009 
227 1 44.9901 49.8868 11.1055 
69 1 49.7175 47.1834 0.907223 
65 1 46.3355 47.1558 0.924372 
76 1 48.1213 48.0863 3.37418 
148 1 35.1547 49.8601 6.04205 
77 1 43.4636 32.2494 8.42421 
91 1 44.8592 33.3801 5.9465 
2 1 46.5179 30.6954 6.00614 
78 1 48.1936 29.753 8.45761 
79 1 46.5135 32.3629 8.46996 
81 1 49.7494 32.4247 8.53181 
4 1 49.7717 30.5817 5.96436 
82 1 37.0399 36.2597 6.00741 
84 1 40.1642 36.0998 5.96575 
86 1 38.5357 35.2444 8.54417 
90 1 41.7919 35.1591 8.34835 
88 1 43.4196 36.1311 5.92149 
94 1 44.9547 35.1508 8.5602 
95 1 48.0957 33.2875 5.9435 
92 1 46.5203 36.092 5.91975 
96 1 49.7357 36.0254 5.92935 
98 1 48.1502 35.1918 8.38375 
83 1 36.9676 38.0795 8.32015 
101 1 35.5427 38.9809 5.80235 
104 1 35.3942 40.7227 8.34831 
99 1 33.8414 41.715 5.86492 
85 1 40.0467 37.9068 8.41081 
105 1 38.6795 38.9573 5.9057 
108 1 38.6126 40.8102 8.41699 
106 1 40.2271 41.6063 5.8664 
109 1 41.7324 38.9032 5.9521 
112 1 41.7005 40.5863 8.33712 
89 1 43.3 37.8438 8.48444 
113 1 45.023 38.9676 5.98191 
116 1 44.7326 40.7053 8.53713 
110 1 43.3827 41.7297 5.84966 
93 1 46.4969 37.9413 8.56645 
97 1 49.697 37.9713 8.44425 
117 1 48.13 38.7999 5.92372 
120 1 48.0494 40.6872 8.43462 
114 1 46.5473 41.755 5.95599 
118 1 49.6762 41.4898 5.97488 
123 1 32.2485 44.5025 5.8778 
102 1 37.0801 41.6535 5.96078 
100 1 33.7325 43.5185 8.34421 
103 1 37.0551 43.5312 8.45063 
127 1 35.3949 44.3589 5.89628 
107 1 40.165 43.5112 8.38419 
131 1 38.6486 44.4198 5.93538 
135 1 41.7571 44.4676 5.82142 
111 1 43.2245 43.4107 8.49863 
139 1 44.8662 44.4523 5.90125 
115 1 46.4613 43.4705 8.44509 
119 1 49.5624 43.441 8.46755 
143 1 48.0983 44.4076 5.94407 
121 1 30.4553 47.1748 6.09779 
126 1 32.2063 46.2961 8.51463 
122 1 30.6384 49.0262 8.6238 
220 1 49.5465 47.2397 10.9068 
125 1 33.7591 48.9455 8.55391 
124 1 33.8301 47.047 5.99387 
128 1 36.9381 47.1102 5.98872 
129 1 36.9624 48.8762 8.54113 
130 1 35.2567 46.159 8.48676 
217 1 46.5513 48.9877 13.5326 
132 1 40.0622 47.156 5.90826 
133 1 40.1646 49.029 8.426 
134 1 38.6011 46.2763 8.52132 
149 1 38.4607 49.8417 6.04843 
216 1 46.3804 47.1693 11.0944 
138 1 41.7752 46.3306 8.5242 
136 1 43.2627 47.2708 5.97665 
137 1 43.294 49.0705 8.52778 
142 1 44.8707 46.3507 8.54152 
46 1 32.185 49.9464 0.959418 
140 1 46.4577 47.1435 5.87884 
141 1 46.4501 49.0278 8.56979 
144 1 49.6818 47.1798 5.93612 
145 1 49.7743 49.0486 8.42682 
146 1 48.1233 46.2772 8.43273 
5 1 49.7654 30.6269 0.860585 
153 1 43.3292 32.4404 13.549 
155 1 46.4944 32.542 13.564 
154 1 46.6219 30.5816 11.0414 
157 1 49.7214 32.3654 13.5583 
156 1 49.7305 30.6078 11.0232 
171 1 48.1751 33.2581 11.02 
158 1 36.8681 36.1158 10.8994 
160 1 40.1003 36.0592 10.9515 
162 1 38.6009 35.2969 13.5767 
163 1 41.6516 33.411 11.001 
166 1 41.6971 35.2086 13.552 
167 1 44.8232 33.243 10.9669 
164 1 43.2641 36.0596 10.9657 
170 1 44.8819 35.1601 13.4693 
168 1 46.5913 36.0886 11.0643 
172 1 49.7067 36.1862 11.0163 
174 1 48.0821 35.2701 13.5925 
177 1 35.4934 38.8945 10.9505 
159 1 37.0375 37.9069 13.4415 
180 1 35.393 40.6898 13.5522 
178 1 36.9016 41.6245 10.9562 
161 1 40.1049 38.021 13.4421 
184 1 38.5842 40.5857 13.5149 
181 1 38.57 38.8861 10.8645 
188 1 41.7767 40.7149 13.5559 
185 1 41.7522 38.8797 10.9364 
192 1 44.8329 40.6739 13.5373 
165 1 43.2353 37.9609 13.4687 
189 1 44.9899 38.8733 11.0206 
169 1 46.5247 37.9808 13.5714 
196 1 47.9402 40.8082 13.5941 
173 1 49.7214 38.0212 13.4827 
193 1 48.0557 38.8704 10.9976 
199 1 32.1671 44.3675 10.9584 
175 1 33.8248 41.5536 10.9082 
176 1 33.8399 43.4764 13.5618 
203 1 35.2857 44.3144 10.9419 
179 1 36.9886 43.4162 13.6055 
182 1 40.1517 41.5683 10.9798 
183 1 40.1354 43.396 13.5133 
207 1 38.4352 44.2328 11.0201 
186 1 43.2576 41.6179 11.0798 
211 1 41.6784 44.3715 10.9719 
187 1 43.2196 43.469 13.655 
215 1 44.7687 44.3903 11.0667 
194 1 49.6373 41.6316 10.9208 
190 1 46.4537 41.7348 11.0017 
191 1 46.4234 43.4234 13.5401 
195 1 49.616 43.5206 13.4829 
219 1 47.9496 44.5054 10.9706 
228 1 48.1608 49.9077 11.1218 
202 1 32.108 46.1501 13.5963 
198 1 30.6543 49.1445 13.4979 
197 1 30.6607 47.0952 10.9363 
201 1 33.7487 48.9491 13.6554 
200 1 33.7411 47.086 11.1631 
205 1 36.922 48.9874 13.5539 
204 1 36.8251 47.0141 11.0368 
206 1 35.3854 46.1231 13.6529 
225 1 38.5193 49.93 11.0272 
151 1 44.8465 49.9583 6.0135 
210 1 38.4125 46.1629 13.6347 
209 1 40.0861 48.9699 13.6852 
208 1 40.0363 47.0621 11.0984 
214 1 41.6603 46.1789 13.5561 
226 1 41.754 49.928 11.0883 
218 1 44.8099 46.2243 13.541 
213 1 43.303 48.9868 13.5435 
212 1 43.2353 47.2335 11.0868 
221 1 49.5834 48.9997 13.6128 
222 1 48.0229 46.1741 13.5677 
147 1 32.0808 49.7371 6.00846 
1503 1 48.0624 49.9323 0.879897 
230 1 43.1402 30.7542 16.2142 
229 1 43.541 32.4839 18.5949 
232 1 46.1681 30.6507 15.9069 
3049 1 49.3313 30.6811 16.1999 
234 1 36.9891 36.053 16.062 
236 1 40.1068 36.2009 16.0765 
242 1 41.7515 35.1253 18.5202 
238 1 38.5478 35.0993 18.542 
239 1 41.7463 33.4001 16.0363 
243 1 44.8628 33.403 16.1055 
240 1 43.3161 36.0787 16.0103 
247 1 48.0923 33.4469 16.0201 
244 1 46.3782 36.156 16.1576 
248 1 49.6707 36.1198 16.1324 
250 1 48.0616 35.2249 18.6014 
253 1 35.5083 38.922 16.0289 
256 1 35.2561 40.7523 18.7234 
257 1 38.5495 38.815 16.1012 
260 1 38.379 40.6942 18.7635 
261 1 41.64 38.8905 16.1019 
265 1 44.8465 38.8312 16.0177 
268 1 44.797 40.7093 18.6211 
269 1 48.1485 38.9709 16.1785 
249 1 49.5708 37.9414 18.6857 
245 1 46.3114 38.0318 18.6001 
266 1 46.4368 41.5512 16.1419 
270 1 49.6057 41.7319 16.0154 
275 1 32.1602 44.3257 16.2336 
251 1 33.8402 41.5863 16.0422 
254 1 36.9766 41.5448 16.0877 
279 1 35.3065 44.3632 16.1614 
252 1 33.6472 43.4853 18.7719 
255 1 36.8616 43.4139 18.7142 
258 1 40.0823 41.5504 16.1124 
283 1 38.5605 44.3657 16.136 
259 1 39.9676 43.5431 18.641 
287 1 41.6477 44.3626 16.111 
262 1 43.2006 41.551 16.1449 
291 1 44.8136 44.2596 16.0895 
263 1 43.2144 43.4083 18.5608 
295 1 48.0989 44.3586 16.0787 
267 1 46.4465 43.3991 18.6755 
273 1 30.6203 47.3962 16.1269 
274 1 30.4355 49.0946 18.6778 
278 1 32.0546 46.2346 18.5805 
378 1 41.6574 49.8992 21.3682 
276 1 33.6968 47.111 16.0649 
280 1 36.7996 47.1061 16.1359 
277 1 33.6387 49.0556 18.6171 
281 1 36.8195 49.0247 18.7821 
282 1 35.2979 46.2066 18.702 
284 1 39.992 47.1196 16.2183 
285 1 40.0037 48.9281 18.7922 
286 1 38.3314 46.2074 18.7112 
290 1 41.6329 46.1954 18.8273 
288 1 43.1919 47.0994 16.1496 
289 1 43.316 49.0141 18.7276 
294 1 44.8319 46.1089 18.6917 
420 1 48.0023 49.7361 26.3971 
292 1 46.4263 47.0873 16.0903 
296 1 49.6162 47.165 16.1645 
297 1 49.5613 49.0636 18.6647 
298 1 48.0614 46.0535 18.633 
380 1 47.9954 49.888 21.1904 
231 1 46.6518 32.3656 18.5214 
233 1 49.6606 32.4694 18.6565 
306 1 46.5369 30.6719 21.193 
308 1 49.6164 30.7312 21.207 
310 1 36.9896 36.1082 21.1235 
312 1 40.0683 36.0501 21.1481 
246 1 44.8495 35.2303 18.6811 
315 1 41.7341 33.4784 21.2542 
319 1 44.9386 33.3165 21.1559 
316 1 43.2576 36.0906 21.1865 
323 1 47.9941 33.3914 21.2767 
320 1 46.4751 36.1546 21.1532 
324 1 49.632 36.0717 21.1746 
235 1 36.8398 37.8724 18.6382 
329 1 35.4367 38.8493 21.2066 
237 1 40.0305 37.9203 18.7288 
333 1 38.4821 38.8916 21.2024 
334 1 40.0422 41.5855 21.2538 
264 1 41.664 40.7273 18.6858 
241 1 43.1905 37.8113 18.6166 
337 1 41.7088 38.8092 21.2425 
341 1 44.7908 38.92 21.2534 
338 1 43.2734 41.5906 21.1951 
272 1 48.0426 40.6803 18.6438 
345 1 48.0096 38.8768 21.2426 
342 1 46.4167 41.4959 21.1926 
351 1 32.2716 44.3668 21.195 
330 1 36.9247 41.6387 21.2758 
327 1 33.9015 41.6454 21.3766 
355 1 35.3078 44.4285 21.2362 
359 1 38.4705 44.4108 21.1837 
363 1 41.6113 44.2174 21.3209 
367 1 44.777 44.3156 21.2416 
271 1 49.5969 43.4579 18.672 
346 1 49.6472 41.7109 21.2544 
371 1 47.9664 44.3537 21.2212 
349 1 30.6045 47.2344 21.2254 
352 1 33.5956 47.1251 21.2191 
356 1 36.8157 47.2106 21.375 
369 1 46.4184 48.7675 23.8836 
360 1 39.918 47.1075 21.2294 
415 1 32.3542 49.879 26.4504 
364 1 43.1486 46.9973 21.4091 
303 1 44.8287 49.8283 16.1276 
373 1 49.6504 48.7969 23.7977 
293 1 46.3944 48.8688 18.69 
368 1 46.2779 47.0859 21.3035 
372 1 49.6108 47.0915 21.1996 
305 1 43.3259 32.5445 23.8136 
381 1 43.0717 30.7083 26.3024 
3195 1 49.3755 30.7092 26.3725 
309 1 49.6006 32.4824 23.8043 
307 1 46.4909 32.407 23.6863 
382 1 46.2937 30.6497 26.1728 
383 1 36.934 36.0635 26.4073 
314 1 38.4578 35.212 23.9145 
384 1 40.0196 36.0563 26.3624 
385 1 41.6493 33.3851 26.3804 
387 1 44.82 33.2714 26.2679 
318 1 41.6895 35.1113 23.6743 
322 1 44.9097 35.1715 23.7502 
386 1 43.1215 35.9999 26.3879 
389 1 47.9705 33.4142 26.2914 
326 1 47.967 35.2518 23.8104 
388 1 46.2841 36.1332 26.3682 
390 1 49.6026 35.9505 26.4263 
311 1 36.9387 37.8226 23.7748 
332 1 35.4466 40.7205 23.882 
392 1 35.3547 38.7157 26.3967 
313 1 40.0197 37.8513 23.6895 
336 1 38.4952 40.6279 23.8047 
394 1 38.4617 38.772 26.3084 
396 1 41.6166 38.7414 26.4875 
340 1 41.6577 40.5592 23.8366 
317 1 43.2554 37.8721 23.7413 
344 1 44.716 40.5954 23.8191 
398 1 44.78 38.8129 26.3723 
325 1 49.5631 37.9621 23.8068 
321 1 46.4224 37.9758 23.8782 
348 1 48.043 40.7204 23.9354 
400 1 47.9385 38.8415 26.4864 
399 1 46.4131 41.6886 26.4135 
403 1 32.1083 44.5188 26.372 
393 1 36.9019 41.6149 26.3724 
328 1 33.6681 43.4889 23.9172 
391 1 33.6934 41.6266 26.3582 
331 1 36.8474 43.4129 23.7804 
405 1 35.2881 44.4135 26.4347 
395 1 40.0227 41.5559 26.4563 
335 1 39.92 43.382 23.9243 
407 1 38.5209 44.3192 26.5192 
397 1 43.1507 41.5835 26.473 
339 1 43.1278 43.3734 23.783 
409 1 41.5678 44.2321 26.4112 
411 1 44.7197 44.3006 26.3324 
401 1 49.563 41.6815 26.4783 
343 1 46.3739 43.3704 23.8759 
347 1 49.55 43.4073 23.8827 
413 1 47.8709 44.3507 26.4492 
350 1 30.6598 49.0448 23.8618 
354 1 32.0731 46.2951 23.8531 
402 1 30.6642 47.349 26.3894 
414 1 49.5316 47.0868 26.4304 
357 1 36.9126 49.0121 23.9222 
353 1 33.714 48.9161 23.887 
404 1 33.7404 47.0965 26.394 
406 1 36.9587 47.0675 26.3949 
358 1 35.2724 46.2343 23.7444 
362 1 38.5159 46.1494 23.8592 
408 1 40.035 47.0964 26.4301 
361 1 40.1206 49.0262 23.831 
412 1 46.3867 47.0443 26.4999 
365 1 43.3023 48.9785 23.8647 
366 1 41.5529 45.9901 23.8587 
410 1 43.1119 47.1395 26.4108 
370 1 44.7746 46.0933 23.8852 
304 1 47.9397 49.9918 16.1458 
416 1 35.3406 49.7998 26.3951 
374 1 47.9876 46.0989 23.7699 
419 1 44.8882 49.7988 26.4121 
302 1 41.6806 49.8289 16.1967 
379 1 44.7914 49.8627 21.3317 
418 1 41.7078 49.8396 26.4993 
301 1 38.465 49.8013 16.142 
417 1 38.5062 49.7968 26.4773 
377 1 38.5405 49.9 21.3414 
375 1 32.2176 50.0036 21.2678 
300 1 35.2964 49.8949 16.1722 
376 1 35.3065 49.8988 21.2862 
421 1 43.2637 32.4526 28.926 
458 1 46.1694 30.6978 31.4712 
422 1 46.4086 32.2884 28.7518 
423 1 49.431 32.252 28.9577 
602 1 48.0745 46.1632 39.2974 
462 1 36.9787 36.1688 31.4838 
426 1 38.3806 35.1989 28.965 
464 1 40.0321 35.9379 31.5612 
467 1 41.9108 33.3866 31.583 
471 1 44.9222 33.4582 31.4655 
428 1 41.5502 35.0301 28.9778 
430 1 44.7898 35.1143 28.8874 
468 1 43.373 36.1057 31.5171 
475 1 47.9268 33.3111 31.4962 
432 1 48.022 35.14 29.0493 
472 1 46.4476 36.1444 31.6277 
476 1 49.5987 35.979 31.6249 
424 1 36.8144 37.888 28.9487 
435 1 35.2657 40.6827 28.9322 
481 1 35.3295 39.0228 31.505 
425 1 39.9445 37.8096 28.9817 
437 1 38.3494 40.6557 28.9034 
485 1 38.4762 38.8489 31.5184 
439 1 41.5724 40.5284 29.024 
489 1 41.625 38.7607 31.6109 
427 1 43.1348 37.8035 29.0049 
441 1 44.7663 40.5511 28.9707 
493 1 44.8816 38.7814 31.4811 
490 1 43.2893 41.5289 31.4768 
429 1 46.3012 37.8695 29.0049 
497 1 47.9856 38.8206 31.5948 
443 1 47.9972 40.6141 29.0937 
431 1 49.502 37.8755 28.9487 
503 1 32.2909 44.5468 31.5353 
482 1 36.831 41.6302 31.5136 
479 1 33.7792 41.7945 31.4401 
433 1 33.6961 43.4898 28.8661 
434 1 36.6526 43.372 28.971 
507 1 35.3359 44.4444 31.5826 
486 1 40.0291 41.5619 31.4979 
436 1 40.035 43.3761 29.0182 
511 1 38.416 44.2401 31.5876 
515 1 41.6251 44.2741 31.6085 
438 1 43.1789 43.4163 28.9448 
519 1 44.7605 44.4091 31.6908 
498 1 49.5677 41.6579 31.6319 
494 1 46.313 41.6338 31.629 
442 1 49.5217 43.456 28.9844 
523 1 47.9305 44.3399 31.6663 
440 1 46.3167 43.4834 29.0722 
444 1 30.6503 49.0312 29.0362 
446 1 32.1463 46.2322 28.9778 
501 1 30.775 47.2147 31.4965 
638 1 43.1989 47.1171 41.9818 
445 1 33.7054 48.8185 28.9995 
504 1 33.879 47.1143 31.5546 
447 1 37.0135 48.8993 28.9822 
448 1 35.2718 46.1398 29.0243 
508 1 36.9546 47.14 31.5629 
449 1 40.0847 48.8884 28.97 
450 1 38.4383 46.053 29.0253 
512 1 40.1513 47.1044 31.5993 
452 1 41.634 46.1634 28.9469 
454 1 44.8242 46.1419 28.9 
516 1 43.2819 47.0286 31.5349 
451 1 43.2144 48.9603 29.0581 
640 1 46.4577 47.2186 41.8902 
453 1 46.5031 48.9304 29.0413 
456 1 48.0467 46.0942 29.0448 
520 1 46.4913 47.0849 31.6206 
524 1 49.6621 47.0051 31.498 
455 1 49.515 48.9279 28.9039 
642 1 49.6478 47.1133 41.8598 
457 1 43.4252 32.3774 34.19 
534 1 43.2564 30.5783 36.8096 
459 1 46.4356 32.4619 34.078 
536 1 46.3636 30.5332 36.5826 
3341 1 49.507 30.6053 36.7947 
461 1 49.5175 32.2645 34.1382 
538 1 37.1198 36.2704 36.6046 
466 1 38.5124 35.1915 34.2 
540 1 40.1644 36.1105 36.6824 
470 1 41.667 35.0303 34.1621 
547 1 44.893 33.2657 36.7243 
543 1 41.699 33.2768 36.7908 
474 1 44.8502 35.1686 34.0974 
544 1 43.2546 36.061 36.7259 
551 1 47.9186 33.2008 36.7828 
478 1 48.0221 35.09 34.2229 
548 1 46.4222 36.0283 36.7449 
552 1 49.5504 35.8903 36.6946 
463 1 37.024 37.9117 34.0355 
484 1 35.2667 40.6562 34.0316 
557 1 35.4784 38.918 36.5536 
555 1 33.6985 41.5851 36.6368 
465 1 40.0862 37.8845 34.2339 
488 1 38.465 40.6367 34.0612 
561 1 38.5269 38.9027 36.6876 
492 1 41.6868 40.6838 34.0268 
565 1 41.7187 38.9316 36.7695 
469 1 43.2379 37.9863 34.1919 
496 1 44.814 40.6484 34.1641 
569 1 44.8888 38.7869 36.7788 
473 1 46.3607 37.9446 34.1818 
500 1 47.9885 40.6116 34.2104 
573 1 48.0124 38.7588 36.7724 
477 1 49.6054 37.8134 34.1557 
579 1 32.1496 44.3246 36.5516 
558 1 36.9374 41.5218 36.643 
480 1 33.7629 43.4407 34.068 
483 1 36.8331 43.3328 34.1418 
583 1 35.2529 44.2776 36.6839 
562 1 40.1239 41.5295 36.7309 
487 1 40.0304 43.4174 34.1476 
587 1 38.5134 44.2729 36.7763 
591 1 41.6765 44.3045 36.7934 
566 1 43.3909 41.538 36.7027 
491 1 43.1965 43.3814 34.2166 
595 1 44.834 44.2953 36.8218 
570 1 46.3852 41.5192 36.7601 
495 1 46.3703 43.3212 34.2206 
499 1 49.5176 43.3156 34.1663 
599 1 48.0061 44.3043 36.8177 
574 1 49.584 41.52 36.6781 
502 1 30.5958 48.9199 34.163 
506 1 32.281 46.3011 34.1698 
577 1 30.6958 47.0573 36.6632 
598 1 44.8096 46.1834 39.3163 
505 1 33.7859 48.9553 34.1885 
509 1 36.9672 48.9056 34.1533 
510 1 35.3741 46.1892 34.1178 
580 1 33.7398 47.032 36.6763 
584 1 36.8642 47.0086 36.7292 
513 1 40.1018 48.877 34.2096 
514 1 38.5059 46.1521 34.0738 
588 1 40.1157 47.0585 36.7553 
518 1 41.6753 46.1053 34.1964 
601 1 49.6239 49.0507 39.2961 
597 1 46.3878 48.9997 39.3977 
517 1 43.2694 48.8791 34.1102 
522 1 44.7903 46.1725 34.1887 
592 1 43.2656 47.0911 36.7564 
521 1 46.448 48.938 34.1754 
525 1 49.6086 48.8807 34.2251 
526 1 48.0002 46.1759 34.2418 
596 1 46.4689 47.2008 36.7733 
600 1 49.7145 47.0646 36.7437 
533 1 43.2569 32.3122 39.3863 
610 1 49.5734 30.7559 41.9663 
609 1 46.4035 30.6324 41.9709 
535 1 46.3964 32.2078 39.2815 
537 1 49.5369 32.2551 39.2834 
611 1 36.9025 36.2808 41.7934 
542 1 38.5215 35.408 39.1974 
612 1 39.9988 36.2 41.8365 
613 1 41.6619 33.4532 41.922 
546 1 41.7419 35.2272 39.3501 
615 1 44.8092 33.3547 41.9236 
550 1 44.8224 35.1045 39.3793 
614 1 43.1071 36.0934 42.0664 
617 1 47.9482 33.3223 41.9146 
554 1 47.9486 34.996 39.3316 
616 1 46.3211 36.0585 41.9628 
618 1 49.6733 36.043 41.9379 
539 1 37.087 38.0865 39.1744 
560 1 35.268 40.6789 39.2088 
620 1 35.4566 38.986 41.9242 
541 1 40.1099 37.9739 39.2472 
564 1 38.5519 40.7541 39.3301 
622 1 38.5344 38.9369 41.7734 
568 1 41.6842 40.7435 39.3282 
624 1 41.63 38.9093 41.9359 
545 1 43.3065 37.9513 39.407 
572 1 44.8632 40.6643 39.3688 
626 1 44.7591 38.8112 41.9327 
549 1 46.4379 37.81 39.4066 
576 1 47.9641 40.6485 39.3901 
628 1 47.9223 38.8212 41.9551 
553 1 49.6572 37.7796 39.2677 
631 1 32.1819 44.414 41.7272 
621 1 36.951 41.6266 41.7528 
619 1 33.8244 41.6715 41.8068 
556 1 33.7582 43.3987 39.2201 
559 1 36.956 43.4287 39.2438 
633 1 35.3658 44.3762 41.8838 
623 1 40.1649 41.7541 41.8941 
563 1 40.0516 43.515 39.3248 
635 1 38.4439 44.4662 41.9298 
637 1 41.6129 44.3781 41.9331 
625 1 43.2601 41.6561 41.8351 
567 1 43.3557 43.48 39.374 
639 1 44.9017 44.5047 42.0726 
629 1 49.5805 41.4757 41.9535 
627 1 46.4037 41.6951 42.0626 
571 1 46.4576 43.384 39.3597 
575 1 49.5592 43.3782 39.4399 
641 1 48.0059 44.4205 42.0294 
578 1 30.7725 48.9489 39.3528 
582 1 32.1502 46.2711 39.2739 
630 1 30.7413 47.1689 41.9128 
581 1 33.7857 48.9784 39.3791 
632 1 33.8114 47.0775 41.9188 
585 1 36.9073 48.9785 39.2863 
586 1 35.2983 46.117 39.2639 
634 1 36.8421 47.1587 41.8376 
590 1 38.5327 46.2157 39.318 
589 1 40.1062 48.9973 39.2295 
636 1 40.0558 47.1475 41.9352 
594 1 41.6505 46.2195 39.3027 
593 1 43.3304 48.9336 39.3623 
532 1 48.0728 49.757 31.5108 
460 1 49.3597 30.6107 31.4283 
648 1 48.1864 49.827 41.9562 
607 1 44.875 49.8431 36.6358 
531 1 44.8216 49.8545 31.6201 
645 1 38.6053 49.9087 41.8873 
529 1 38.5115 49.7729 31.6176 
606 1 41.6962 49.8643 36.7217 
608 1 48.0606 49.8866 36.9002 
646 1 41.7193 49.9696 41.8048 
530 1 41.7068 49.8783 31.5836 
605 1 38.495 49.8467 36.7568 
527 1 32.3054 49.8024 31.5641 
604 1 35.3907 49.8079 36.7645 
644 1 35.3821 49.8962 41.8982 
528 1 35.374 49.9169 31.4971 
603 1 32.2804 49.7102 36.7188 
643 1 32.2285 49.8027 41.9222 
647 1 44.8797 49.9011 41.933 
649 1 43.223 32.5858 44.5556 
686 1 46.6816 30.8064 47.079 
650 1 46.3254 32.4493 44.4885 
688 1 49.6768 30.657 47.2932 
651 1 49.5108 32.3912 44.5586 
690 1 36.9968 36.2556 47.1192 
654 1 38.4386 35.3517 44.4002 
692 1 39.9654 36.1256 47.12 
656 1 41.6612 35.1922 44.5657 
699 1 44.8739 33.2802 47.114 
695 1 41.7023 33.3606 47.1632 
658 1 44.8476 35.1767 44.5588 
696 1 43.1875 36.0485 47.1293 
703 1 48.0674 33.3738 47.1091 
660 1 47.9611 35.1441 44.5122 
700 1 46.4578 36.0236 47.0309 
704 1 49.6832 36.0993 47.0925 
652 1 36.8022 38.0281 44.5094 
663 1 35.2642 40.8139 44.4277 
709 1 35.4639 38.9937 47.0343 
653 1 39.9714 37.978 44.4787 
665 1 38.3092 40.7564 44.4036 
713 1 38.4236 38.9685 46.9555 
667 1 41.647 40.7256 44.4268 
717 1 41.6136 38.8221 47.0758 
655 1 43.2288 37.9742 44.5743 
669 1 44.8139 40.7431 44.5 
721 1 44.8105 38.7837 47.0607 
659 1 49.5854 37.9016 44.4841 
657 1 46.3923 37.9305 44.4984 
671 1 48.049 40.6626 44.5037 
725 1 47.9993 38.9132 46.9457 
731 1 32.3557 44.5412 47.1078 
707 1 33.8884 41.8204 47.0613 
710 1 36.9266 41.6764 47.0475 
661 1 33.7703 43.6023 44.4099 
662 1 36.9129 43.5565 44.3474 
735 1 35.3695 44.4837 47.1055 
714 1 40.0499 41.6668 47.0254 
664 1 40.0813 43.463 44.5297 
739 1 38.4986 44.4741 47.0474 
743 1 41.7623 44.3651 47.0253 
718 1 43.1869 41.5301 47.0219 
666 1 43.272 43.5321 44.4837 
747 1 44.8262 44.3333 47.0989 
722 1 46.4039 41.649 47.0135 
668 1 46.4404 43.4794 44.4803 
751 1 48.0137 44.3219 47.097 
670 1 49.5272 43.3722 44.539 
726 1 49.6992 41.594 47.1379 
672 1 30.663 49.0413 44.455 
674 1 32.3186 46.3379 44.3839 
729 1 30.5992 47.0157 46.9543 
673 1 33.7565 49.0389 44.4968 
675 1 36.9276 48.9425 44.4958 
676 1 35.3447 46.3163 44.5701 
732 1 33.698 47.1834 47.062 
736 1 36.9468 47.2434 47.1243 
677 1 40.1866 49.0807 44.4062 
678 1 38.5238 46.282 44.4475 
740 1 40.1697 47.2433 47.0265 
680 1 41.5623 46.2124 44.4619 
679 1 43.2442 48.9557 44.4991 
682 1 44.806 46.2823 44.5645 
744 1 43.2298 47.0303 47.1072 
681 1 46.4774 48.9471 44.5855 
683 1 49.6778 48.8887 44.552 
684 1 47.9914 46.1144 44.507 
748 1 46.4539 47.1298 47.0547 
752 1 49.6749 47.1709 47.1227 
685 1 43.3378 32.5968 49.7461 
771 1 41.6416 33.3065 52.3781 
775 1 44.8805 33.4359 52.2147 
687 1 46.5145 32.5942 49.6483 
689 1 49.6618 32.5385 49.6793 
766 1 36.7578 36.3876 52.3173 
694 1 38.333 35.3411 49.8061 
768 1 39.9666 36.1237 52.3134 
698 1 41.5409 35.1679 49.7466 
702 1 44.8846 35.2206 49.616 
772 1 43.2501 36.1263 52.2599 
779 1 48.1148 33.4431 52.2169 
706 1 48.0505 35.1973 49.6237 
776 1 46.4418 36.1503 52.2068 
780 1 49.6181 36.1261 52.1854 
691 1 36.8832 38.1295 49.6649 
712 1 35.1677 40.8064 49.604 
785 1 35.4062 39.0648 52.1829 
783 1 33.7531 41.8173 52.2572 
786 1 36.8491 41.7541 52.204 
693 1 39.9831 37.881 49.6119 
716 1 38.444 40.7584 49.6056 
789 1 38.4804 39.0242 52.2365 
720 1 41.5488 40.8459 49.6254 
793 1 41.5549 38.7936 52.1314 
697 1 43.2351 37.9394 49.6514 
724 1 44.758 40.7839 49.4879 
797 1 44.7652 38.8551 52.1264 
794 1 43.1458 41.5873 52.1104 
701 1 46.4011 37.9642 49.6624 
728 1 47.9842 40.6157 49.5864 
801 1 48.0033 38.8361 52.2427 
705 1 49.5812 37.9705 49.5547 
802 1 49.4957 41.5731 52.1967 
807 1 32.053 44.5032 52.261 
708 1 33.7033 43.6327 49.6842 
711 1 36.8287 43.5718 49.703 
811 1 35.2332 44.4567 52.2892 
790 1 40.0067 41.5879 52.2264 
715 1 39.9626 43.473 49.6299 
815 1 38.4343 44.396 52.1817 
819 1 41.473 44.4336 52.1283 
719 1 43.1696 43.5247 49.7535 
823 1 44.7563 44.4364 52.216 
798 1 46.3752 41.6048 52.1944 
723 1 46.4439 43.3911 49.6811 
727 1 49.5344 43.5538 49.5786 
827 1 47.9379 44.4807 52.1771 
730 1 30.6026 49.1013 49.4984 
734 1 32.1639 46.3574 49.658 
805 1 30.5749 47.2066 52.146 
826 1 44.8028 46.3416 54.8568 
733 1 33.7159 49.0767 49.5585 
737 1 36.8963 49.1161 49.6824 
738 1 35.315 46.3371 49.6916 
812 1 36.7451 47.2606 52.2599 
808 1 33.5925 47.1494 52.2309 
821 1 43.1481 48.9362 54.9533 
741 1 40.0806 48.9582 49.59 
742 1 38.4379 46.3167 49.6567 
816 1 39.9585 47.1297 52.2783 
746 1 41.5475 46.174 49.6065 
745 1 43.2284 48.9765 49.6339 
750 1 44.8933 46.2396 49.613 
820 1 43.1305 47.1756 52.2258 
825 1 46.394 49.0665 54.8421 
749 1 46.4763 48.9895 49.6464 
753 1 49.6967 49.0221 49.6938 
754 1 48.0494 46.2793 49.6528 
824 1 46.4412 47.1909 52.2674 
828 1 49.6284 47.2769 52.2333 
830 1 48.0687 46.1556 54.7539 
761 1 43.3873 32.5398 54.9323 
765 1 49.7302 32.5457 54.802 
763 1 46.5176 32.6219 54.9161 
770 1 38.4097 35.3098 54.8011 
774 1 41.678 35.2522 54.9438 
778 1 44.808 35.2318 54.7796 
782 1 48.0013 35.2754 54.8557 
767 1 36.882 38.0147 54.9116 
788 1 35.3223 40.7063 54.7875 
829 1 49.6446 49.0482 54.8937 
769 1 39.9875 38.01 54.8241 
792 1 38.426 40.7669 54.8729 
796 1 41.6347 40.6845 54.7677 
773 1 43.2051 37.9681 54.849 
800 1 44.7534 40.7503 54.733 
777 1 46.3712 37.9993 54.7299 
781 1 49.6632 37.9789 54.8588 
804 1 47.9273 40.7914 54.868 
784 1 33.7463 43.5228 54.8659 
787 1 36.8528 43.4652 54.8512 
791 1 40.1009 43.4321 54.7065 
795 1 43.1985 43.5149 54.7586 
803 1 49.5888 43.4395 54.8047 
799 1 46.3792 43.5312 54.7515 
806 1 30.6125 49.04 54.7012 
810 1 32.0949 46.2822 54.8021 
809 1 33.5467 49.0736 54.8781 
814 1 35.1719 46.258 54.8565 
813 1 36.8193 49.1564 54.836 
818 1 38.3722 46.285 54.8775 
817 1 39.9915 49.0848 54.8589 
822 1 41.5659 46.2819 54.7476 
760 1 48.0323 49.8091 47.1505 
831 1 32.0975 50.0187 52.1724 
757 1 38.5225 49.9569 46.9952 
759 1 44.9094 49.8865 47.1124 
758 1 41.7149 49.9688 47.0515 
755 1 32.2298 49.8905 47.0845 
836 1 47.9727 49.857 52.2733 
835 1 44.8643 49.8929 52.2313 
756 1 35.3524 49.984 46.9705 
833 1 38.3924 49.9182 52.3117 
832 1 35.149 49.9696 52.3546 
837 1 43.412 32.7797 60.0093 
844 1 39.8455 36.1811 57.4004 
881 1 30.628 47.379 57.3494 
839 1 46.4893 32.647 60.1206 
841 1 49.6016 32.5282 60.018 
838 1 46.64 30.7717 57.5562 
840 1 49.7392 30.7532 57.4863 
848 1 43.2367 36.1959 57.4083 
846 1 38.3555 35.1819 60.0927 
1057 1 49.5609 49.0966 70.196 
850 1 41.5515 35.3024 59.9941 
854 1 44.7685 35.4565 60.042 
1049 1 43.2183 49.0585 70.2358 
852 1 46.361 36.1472 57.3662 
858 1 47.962 35.3554 59.8926 
856 1 49.5929 36.1877 57.3869 
855 1 48.1811 33.4444 57.4088 
843 1 36.818 37.886 60.1289 
864 1 35.2296 40.7562 60.1436 
847 1 41.7102 33.5757 57.4982 
862 1 36.9176 41.7042 57.5448 
865 1 38.4092 38.8893 57.448 
845 1 39.8214 37.9743 60.0235 
868 1 38.3478 40.7995 60.0068 
866 1 40.0377 41.7042 57.3769 
872 1 41.5641 40.7913 59.9668 
849 1 43.1861 37.9904 59.981 
876 1 44.6709 40.7883 60.0158 
873 1 44.8158 39.0496 57.3901 
869 1 41.5789 38.8536 57.446 
870 1 43.1458 41.7377 57.4285 
857 1 49.6316 38.1013 59.881 
853 1 46.3803 38.087 59.9512 
880 1 47.9813 40.9357 59.95 
877 1 47.8768 39.0171 57.4389 
1054 1 44.7588 46.339 70.2334 
860 1 33.5873 43.596 60.0724 
863 1 36.6832 43.5692 60.0593 
887 1 35.3072 44.4911 57.5445 
867 1 39.8996 43.5967 59.9389 
891 1 38.4136 44.456 57.3148 
895 1 41.5742 44.4156 57.3051 
871 1 43.2039 43.6148 59.906 
899 1 44.8177 44.4212 57.4008 
874 1 46.2885 41.7659 57.3884 
878 1 49.6164 41.7065 57.4458 
875 1 46.4423 43.5378 60.02 
879 1 49.5991 43.6328 59.9638 
903 1 47.9523 44.4368 57.3173 
1048 1 43.181 47.2154 67.6533 
882 1 30.5648 49.047 60.069 
886 1 31.9548 46.2907 60.0006 
1052 1 46.3608 47.3688 67.6565 
1053 1 46.5056 49.0525 70.2499 
884 1 33.6721 47.2247 57.5073 
885 1 33.5921 49.0276 60.0381 
889 1 36.7552 49.1119 60.0149 
890 1 35.1836 46.4479 60.0175 
888 1 36.8244 47.3204 57.4183 
893 1 39.8433 49.1288 59.9148 
894 1 38.361 46.3876 59.9081 
892 1 39.9842 47.1708 57.3762 
898 1 41.5378 46.3207 59.971 
861 1 35.2886 38.8981 57.4512 
993 1 49.9006 32.6027 70.496 
897 1 42.9932 49.0362 60.0019 
902 1 44.8026 46.3261 59.8687 
896 1 43.1271 47.2145 57.4174 
1058 1 48.1439 46.3957 70.2182 
901 1 46.3719 49.1776 59.882 
906 1 47.9373 46.3992 59.9216 
905 1 49.6084 49.086 59.8961 
900 1 46.3771 47.2595 57.4112 
904 1 49.6106 47.2488 57.3249 
913 1 43.5445 32.709 65.2196 
927 1 44.9581 33.6615 62.6477 
917 1 49.7247 32.4891 65.1478 
914 1 46.4188 30.9002 62.806 
915 1 46.6901 32.7981 65.2221 
916 1 49.6124 30.823 62.7296 
918 1 37.0346 36.0572 62.7098 
920 1 40.0536 36.0569 62.6349 
922 1 38.6602 35.4126 65.2447 
923 1 41.9321 33.5866 62.5759 
926 1 41.8705 35.392 65.188 
924 1 43.3335 36.2815 62.5882 
930 1 44.9215 35.4359 65.2206 
931 1 48.1694 33.6367 62.5762 
928 1 46.4212 36.3225 62.54 
934 1 47.938 35.4014 65.1015 
932 1 49.576 36.3323 62.3934 
919 1 36.9194 37.9503 65.2984 
937 1 35.2722 38.911 62.663 
940 1 35.3385 40.7159 65.3011 
938 1 36.7758 41.6429 62.7138 
935 1 33.7416 41.7266 62.6963 
921 1 40.0823 38.0299 65.2179 
941 1 38.3662 38.8574 62.6367 
944 1 38.4764 40.7268 65.2375 
942 1 39.9084 41.6761 62.51 
948 1 41.6593 40.9145 65.1218 
945 1 41.5969 38.8801 62.5546 
925 1 43.2763 38.1982 65.2071 
949 1 44.8127 39.1075 62.5243 
952 1 44.9291 40.8794 65.0787 
946 1 43.1514 41.6664 62.5306 
933 1 49.6062 38.0144 65.1338 
929 1 46.3941 38.1513 65.1989 
953 1 47.9576 39.0334 62.5477 
956 1 48.0893 40.8791 65.0976 
959 1 32.0782 44.494 62.7153 
936 1 33.6589 43.6205 65.3072 
939 1 36.7952 43.4893 65.1709 
963 1 35.1873 44.4202 62.6804 
943 1 39.8893 43.4357 65.1515 
967 1 38.3215 44.412 62.5126 
971 1 41.5357 44.3939 62.488 
947 1 43.28 43.6683 65.0016 
975 1 44.7742 44.6236 62.4334 
950 1 46.4225 41.7597 62.5156 
951 1 46.3817 43.6556 65.1474 
979 1 47.9877 44.5986 62.5123 
955 1 49.5994 43.7073 65.1086 
954 1 49.5883 41.7824 62.6209 
1046 1 38.389 46.3069 70.3443 
957 1 30.508 47.231 62.6871 
958 1 30.576 49.0338 65.2561 
962 1 32.1691 46.248 65.3337 
960 1 33.5957 47.2322 62.7286 
961 1 33.6582 49.02 65.3136 
964 1 36.8033 47.1597 62.5713 
965 1 36.8084 49.068 65.2199 
966 1 35.1933 46.3313 65.2524 
1044 1 40.0077 47.116 67.7222 
968 1 39.9144 47.1327 62.4414 
969 1 39.8579 48.9882 65.1538 
970 1 38.3804 46.1871 65.1114 
974 1 41.5235 46.2221 65.0888 
1050 1 41.614 46.3047 70.1914 
859 1 33.8607 41.7844 57.5476 
972 1 43.1694 47.2263 62.5194 
973 1 43.119 48.9248 65.1075 
978 1 44.7541 46.3926 65.0163 
883 1 32.257 44.5865 57.3773 
981 1 49.515 49.0718 65.0695 