LAMMPS (16 Feb 2016)
WARNING: OMP_NUM_THREADS environment is not set. (../comm.cpp:90)
  using 1 OpenMP thread(s) per MPI task

# Deforming a Nanowire.
# Suman Kandel, Dr. Mark A. Tschopp, 2011.

# ------------------------ INITIALIZATION ----------------------------
units        metal
boundary     p p p

atom_style   atomic


# ----------------------- ATOM DEFINITION ----------------------------
lattice hcp 3.20
Lattice spacing in x,y,z = 3.2 5.54256 5.22558
region whole block 0  100 0 100 0 100 units box
create_box 1 whole
Created orthogonal box = (0 0 0) to (100 100 100)
  2 by 2 by 7 MPI processor grid
region LLF cylinder z  50 50 20  INF INF  units box
lattice hcp 3.20 orient x 1 0 0 orient y 0 1 0 orient z 0 0 1
Lattice spacing in x,y,z = 3.2 5.54256 5.22558
create_atoms 1 region LLF
Created 5538 atoms
#delete_atoms overlap 0.5 all all

# ------------------------ FORCE FIELDS ------------------------------
pair_style   eam
pair_coeff   * * Ag_u3.eam
Reading potential file Ag_u3.eam with DATE: 2007-06-11

# ------------------------- SETTINGS ---------------------------------
#### Computes Required
compute csym all centro/atom 12
compute 2 all stress/atom NULL
compute mytemp all temp
compute 11 all reduce sum c_2[1]
compute 12 all reduce sum c_2[2]
compute 13 all reduce sum c_2[3]
compute 14 all reduce sum c_2[4]
compute 15 all reduce sum c_2[5]
compute 16 all reduce sum c_2[6]

neighbor     0.3 bin
neigh_modify delay 10
thermo 100
velocity all create 100.0 16723
thermo_style custom step temp etotal press pxx pyy pzz lx ly lz
shell mkdir dump
shell cd dump

#---------------Energy Equilibriation--------------------------
reset_timestep 0
fix 1 all nve
fix 2 all temp/rescale 10 100.0 100.0 1.0 0.5
dump 1 all custom 10000 dump.equilibrate.* id type x y z

run 10000
Neighbor list info ...
  2 neighbor list requests
  update every 1 steps, delay 10 steps, check yes
  max neighbors/atom: 2000, page size: 100000
  master list distance cutoff = 5.85
  ghost atom cutoff = 5.85
  binsize = 2.925 -> bins = 35 35 35
Memory usage per processor = 4.77607 Mbytes
Step Temp TotEng Press Pxx Pyy Pzz Lx Ly Lz
       0          100    10033.841    32355.395   -17890.968    -17967.94    132925.09          100          100          100
     100    477.69199    -12828.97   -12189.604   -12712.159   -12758.128   -11098.525          100          100          100
     200    142.35767   -13625.868   -13049.301   -12905.764   -12959.781   -13282.358          100          100          100
     300    131.89613   -13866.685   -12312.766   -11973.446   -11979.535   -12985.317          100          100          100
     400    127.25137   -14071.254   -10948.853   -10380.496   -10381.589   -12084.474          100          100          100
     500    123.25816   -14249.168    -9722.277   -9012.7854   -9010.7233   -11143.322          100          100          100
     600    120.22321   -14403.959   -8594.6937   -7754.3679   -7743.6474   -10286.066          100          100          100
     700    117.38269   -14536.676   -7523.1383   -6508.0561    -6505.951   -9555.4077          100          100          100
     800    114.85446    -14650.69   -6566.9828   -5393.0579    -5394.813   -8913.0776          100          100          100
     900    112.33021   -14747.337   -5538.4983   -4178.2725   -4183.7751   -8253.4474          100          100          100
    1000    109.75269   -14825.589   -4563.3327   -3010.0421   -3028.1149   -7651.8412          100          100          100
    1100    105.69132   -14879.659   -3441.0066   -1617.1564   -1641.3355    -7064.528          100          100          100
    1200    102.83813     -14909.1   -2170.2229    2.8040477   -41.308264   -6472.1645          100          100          100
    1300    100.56871   -14921.061   -842.07587    1687.5401    1635.7304    -5849.498          100          100          100
    1400    99.535518   -14920.221    324.34898    3142.6321    3084.3249   -5253.9101          100          100          100
    1500    101.70756   -14924.026    739.26565    3573.8388    3540.2565   -4896.2984          100          100          100
    1600    103.73873   -14944.263     262.8404    2850.1521     2833.488   -4895.1188          100          100          100
    1700    104.23777   -14974.407   -392.07434    1898.2968    1863.4809   -4938.0007          100          100          100
    1800    103.23019   -15001.101   -1207.3716    715.41024    697.60731   -5035.1324          100          100          100
    1900    102.15168   -15019.901   -1925.5511   -363.02473   -359.75107   -5053.8774          100          100          100
    2000    101.69648   -15033.133   -2400.9195   -1154.6384   -1126.5172   -4921.6028          100          100          100
    2100    101.58156   -15044.684   -2584.5554    -1599.057   -1559.8352   -4594.7739          100          100          100
    2200    101.85233   -15057.412   -2406.1556   -1590.5689   -1559.1367   -4068.7612          100          100          100
    2300    101.89327   -15071.216   -1947.4543   -1252.7088   -1214.5957   -3375.0584          100          100          100
    2400    101.69491   -15084.153   -1260.7858    -617.0476   -585.70392   -2579.6058          100          100          100
    2500     101.2743   -15094.263   -544.78529     58.14626     85.58112   -1778.0832          100          100          100
    2600    100.80781   -15100.997    84.291887     623.5871    655.29118   -1026.0026          100          100          100
    2700    100.56582   -15105.655    574.07354    1035.0338    1076.7642   -389.57736          100          100          100
    2800      100.676   -15108.594    889.01339    1256.6362     1270.293    140.11096          100          100          100
    2900    100.84122   -15110.637    973.30181    1176.1469    1176.8387    566.91979          100          100          100
    3000    100.29132   -15111.003    883.67409    862.80433    876.33433     911.8836          100          100          100
    3100    99.427251   -15110.593    649.31029    394.12141    412.14598    1141.6635          100          100          100
    3200    99.395678   -15107.337    317.34244   -178.97563   -177.53554    1308.5385          100          100          100
    3300     98.97469   -15101.368    61.913682    -671.3675   -679.84437    1536.9529          100          100          100
    3400     98.60834   -15092.437   -19.678588   -982.81582   -989.17152    1912.9516          100          100          100
    3500    98.443583   -15081.776    78.956264   -1085.6334    -1100.459    2422.9612          100          100          100
    3600    98.422517   -15070.753    302.44052   -1027.7397   -1083.1438     3018.205          100          100          100
    3700     98.22999    -15058.99    653.35317   -845.58418   -885.24477    3690.8885          100          100          100
    3800    97.979377   -15045.356    1195.7452   -445.25038   -474.76432    4507.2504          100          100          100
    3900     97.36707   -15028.238    1834.5254      105.233    21.877204    5376.4659          100          100          100
    4000    97.058399   -15007.384    2464.6117    638.94149    529.91306    6224.9804          100          100          100
    4100    96.768214   -14984.996    3071.8319     1104.259    1069.0666      7042.17          100          100          100
    4200    96.831475   -14962.657    3472.2322    1418.5533     1381.877    7616.2664          100          100          100
    4300    97.115364   -14941.377    3516.5112    1400.4784    1304.1814    7844.8738          100          100          100
    4400    98.171173   -14923.992    3151.7247    904.37677    884.60811    7666.1891          100          100          100
    4500    99.262201   -14914.047    2419.7067    95.340758     136.9162    7026.8632          100          100          100
    4600    99.254224   -14912.329    1605.1834   -671.50802   -724.23339    6211.2916          100          100          100
    4700    99.326667   -14909.245    1054.4499   -1207.7484   -1261.5197    5632.6178          100          100          100
    4800    99.156339   -14903.928    661.21499   -1619.7795   -1579.9363    5183.3607          100          100          100
    4900    99.933935   -14902.952     353.6941   -1859.4255   -1833.7509    4754.2587          100          100          100
    5000    101.25102   -14908.424    179.87362   -1937.0953   -1950.0694    4426.7855          100          100          100
    5100    103.11795   -14924.665    207.05179   -1819.7824   -1802.5754    4243.5132          100          100          100
    5200    104.36389   -14953.089    414.40234    -1516.581   -1460.3054    4220.0934          100          100          100
    5300     104.3107   -14984.639    713.97763      -1075.7   -1040.7454    4258.3784          100          100          100
    5400    103.98856   -15014.512    1094.8305   -573.67034   -513.86927    4372.0312          100          100          100
    5500    102.65418   -15037.732    1468.0626   -63.542441    5.7992195    4461.9309          100          100          100
    5600    101.70277   -15053.374    1750.2763    356.41122    455.34642    4439.0711          100          100          100
    5700    100.97935   -15063.058    1919.1116    679.52117    816.58973    4261.2239          100          100          100
    5800    100.72604   -15068.503    1925.5751     880.1692    1005.9307    3890.6254          100          100          100
    5900    101.16706   -15075.121    1770.4806    925.19969    999.03504    3387.2071          100          100          100
    6000    101.54324   -15085.119    1453.3377    756.06798    827.47736    2776.4676          100          100          100
    6100    101.54602   -15096.765     965.5113    376.46135    455.88391    2064.1886          100          100          100
    6200    100.96898   -15106.039    357.25333   -125.12265     -51.8408    1248.7234          100          100          100
    6300    100.63235   -15109.418   -144.31752   -498.38163   -465.24089    530.66996          100          100          100
    6400    99.425953     -15107.8   -464.53806    -675.0325   -679.45026   -39.131421          100          100          100
    6500    99.021635   -15103.698   -651.65082   -703.93757   -728.18414   -522.83077          100          100          100
    6600    99.400006   -15100.646   -737.61713   -599.07284   -653.79578   -959.98276          100          100          100
    6700    99.462117   -15099.504   -744.02105    -384.9181   -491.86614   -1355.2789          100          100          100
    6800    99.403835   -15098.698   -751.83389   -173.45615    -314.5979   -1767.4476          100          100          100
    6900    99.193645   -15094.959   -665.77572    140.56104   -16.881472   -2121.0067          100          100          100
    7000    98.383772    -15085.78    -441.6587    616.45028     423.5968   -2365.0232          100          100          100
    7100    97.739889   -15071.255   -195.34905    1093.7488     885.3259   -2565.1219          100          100          100
    7200    97.973736   -15055.455   -89.663626    1356.8134    1168.4749   -2794.2792          100          100          100
    7300    98.773456   -15044.035    -270.8415    1241.5677    1090.9695   -3145.0617          100          100          100
    7400    99.419371   -15037.381   -721.02992    775.63631    698.55084   -3637.2769          100          100          100
    7500    98.972373   -15031.885   -1239.5312    202.51204    213.54065   -4134.6464          100          100          100
    7600    97.762436    -15020.11   -1744.7783   -354.91131   -285.48142   -4593.9423          100          100          100
    7700    96.700437   -15000.127    -2175.526   -808.67106   -696.51396    -5021.393          100          100          100
    7800    96.451471   -14974.671     -2566.08   -1226.9278   -1061.2678   -5410.0443          100          100          100
    7900    96.998203   -14951.658   -2836.4385   -1506.0391   -1259.0401   -5744.2363          100          100          100
    8000    98.428624   -14935.565   -2853.0997   -1483.9418    -1139.634   -5935.7234          100          100          100
    8100    99.481762    -14931.39   -2559.7354   -1054.5199   -699.60831   -5925.0779          100          100          100
    8200    100.79081   -14933.158   -2125.5861    -431.3969   -138.78661   -5806.5748          100          100          100
    8300    100.65119   -14936.555   -1606.9385    261.51928    503.03247   -5585.3674          100          100          100
    8400     99.34492   -14934.411   -1076.5676    902.76143    1155.1692   -5287.6334          100          100          100
    8500    99.308063   -14927.051    -654.8964    1367.3429    1642.8285   -4974.8605          100          100          100
    8600    100.88972   -14927.463   -398.90253    1613.3468    1872.7452   -4682.7996          100          100          100
    8700    102.68707     -14939.6   -475.90776    1442.2512     1644.744   -4514.7184          100          100          100
    8800     103.6235    -14962.47   -891.80602    875.63958    961.18168   -4512.2393          100          100          100
    8900    102.75045   -14985.109   -1405.0638    182.58201    171.20185   -4568.9753          100          100          100
    9000    102.07094   -15002.285   -1783.4193   -359.23422   -416.21861   -4574.8049          100          100          100
    9100    101.46434   -15014.155   -1996.7584   -708.78068   -805.89111   -4475.6035          100          100          100
    9200    101.02976   -15023.026   -2028.9016   -838.98588   -973.80094   -4273.9179          100          100          100
    9300    101.51512   -15033.084   -1915.1119   -803.34456   -959.90882   -3982.0823          100          100          100
    9400    101.80143   -15045.076   -1681.1563   -619.63178   -811.34707     -3612.49          100          100          100
    9500    102.10028   -15059.576   -1316.2911   -281.83535   -516.29733   -3150.7407          100          100          100
    9600    101.94175   -15073.979   -892.55905    121.71613   -130.84194   -2668.5513          100          100          100
    9700    101.23352   -15085.627   -434.97027    509.33663    302.77657    -2117.024          100          100          100
    9800     100.7199   -15092.105 -0.066534415    823.80025    681.91686   -1505.9167          100          100          100
    9900    100.79843   -15094.561    294.09911    972.89487    868.44902   -959.04657          100          100          100
   10000    100.51878   -15097.503    396.77404    894.90658    834.44007   -539.02452          100          100          100
Loop time of 3.30841 on 28 procs for 10000 steps with 5538 atoms

Performance: 261.153 ns/day, 0.092 hours/ns, 3022.599 timesteps/s
99.7% CPU use with 28 MPI tasks x 1 OpenMP threads

MPI task timing breakdown:
Section |  min time  |  avg time  |  max time  |%varavg| %total
---------------------------------------------------------------
Pair    | 1.9918     | 2.5394     | 2.8649     |  14.6 | 76.76
Neigh   | 0.03217    | 0.055741   | 0.070919   |   4.3 |  1.68
Comm    | 0.23208    | 0.57544    | 1.1449     |  31.5 | 17.39
Output  | 0.010669   | 0.010908   | 0.015986   |   0.9 |  0.33
Modify  | 0.033881   | 0.039972   | 0.044164   |   1.2 |  1.21
Other   |            | 0.08697    |            |       |  2.63

Nlocal:    197.786 ave 228 max 132 min
Histogram: 2 2 0 1 1 1 5 5 2 9
Nghost:    498.571 ave 575 max 353 min
Histogram: 3 3 1 1 0 0 0 4 10 6
Neighs:    4718.71 ave 5879 max 2362 min
Histogram: 2 1 1 1 1 1 6 5 5 5
FullNghs:  0 ave 0 max 0 min
Histogram: 28 0 0 0 0 0 0 0 0 0

Total # of neighbors = 132124
Ave neighs/atom = 23.8577
Neighbor list builds = 350
Dangerous builds = 12
unfix 1
unfix 2

#-----------------Pressure Equilibriation-----------------------
fix 1 all npt temp 100.0 100.0 10.0 aniso 0.0 0.0 10 drag 0.3
run 10000
Memory usage per processor = 4.77607 Mbytes
Step Temp TotEng Press Pxx Pyy Pzz Lx Ly Lz
   10000    100.51878   -15097.503    396.77404    894.90658    834.44007   -539.02452          100          100          100
   10100    105.39701   -15097.982    277.07693    524.70604    530.91306    -224.3883    100.05183    100.04929    99.971837
   10200    108.63167   -15098.404    61.646944     2.578273    67.859407    114.50315    100.16977    100.16542    99.915335
   10300    108.39183   -15098.054   -118.27213   -455.80922   -363.89482    464.88765    100.28538     100.2874    99.875095
   10400    104.27367   -15097.757   -146.60099   -687.62118   -586.71851    834.53671    100.34001    100.35995    99.896572
   10500    97.704414    -15098.77   -85.119723   -752.31163     -665.688    1162.6405    100.30507    100.35465    100.02361
   10600    89.530435   -15101.873    113.82113   -606.19033   -509.59147    1457.2452    100.17885    100.26764    100.29104
   10700    83.137646   -15106.826    335.78728   -351.08032   -258.81457    1617.2567    99.993665    100.12879    100.70795
   10800     78.29708   -15112.461    518.89175   -75.779285    10.134651    1622.3199    99.807866    99.990031    101.22593
   10900    75.634788   -15117.639    622.99643    123.23962     213.3981    1532.3516    99.671989    99.895902    101.76155
   11000    72.965644   -15122.168    646.38938    220.18956    304.96332    1414.0153    99.598048    99.858107    102.27132
   11100    68.930891   -15126.134    545.18686    185.65441    262.30177    1187.6044    99.572661     99.86549    102.76198
   11200    63.159697   -15129.242    367.48023    78.887569     124.5353    899.01783    99.575086      99.8988    103.23678
   11300    57.222616   -15131.378    179.27459   -79.658383   -37.929446    655.41159    99.584773    99.935928    103.68024
   11400    55.114025   -15132.756    63.794077   -186.51883   -129.10047    507.00154    99.582699    99.958382    104.07604
   11500    56.614888   -15133.835     71.47302   -174.62162   -121.22756    510.26824    99.560969    99.960506    104.42188
   11600    58.629112   -15134.887    116.48564    -111.9975   -99.227791    560.68221    99.525985    99.948217    104.73265
   11700    57.912344   -15135.965    166.81996   -60.297205    -64.10814    624.86522      99.4879    99.928142    105.02565
   11800    54.641772   -15137.139    229.97869    8.5187543   -15.211963    696.62928    99.453638    99.906343    105.31498
   11900    49.637063   -15138.424    294.39533    111.70389    34.523761    736.95836    99.430575       99.889    105.61087
   12000    46.791815   -15139.774    303.79537    146.13368    51.953037    713.29938    99.426534    99.880378    105.91603
   12100    47.288386   -15141.023    229.45399    77.176984    5.5109672    605.67402     99.43955    99.879579    106.22381
   12200    49.452289   -15141.967    119.28492   -22.135063   -79.424594     459.4144    99.457243    99.879016    106.51968
   12300    49.858054   -15142.606     59.10049   -53.431965   -124.64131    355.37474    99.467955    99.869482    106.78996
   12400    47.247321   -15143.069    42.325537   -45.649061   -126.26516    298.89083    99.469806    99.848174    107.03063
   12500    43.672339   -15143.407     30.15831    -52.32308   -95.652184     238.4502    99.465361    99.817885    107.24429
   12600    41.081361   -15143.667    96.237764    11.581157    3.4490339     273.6831    99.456554    99.784905    107.43428
   12700    41.330315   -15143.981    219.41206    129.90022    149.12558     379.2104    99.452348    99.761654    107.61366
   12800    44.620475   -15144.407    248.41936    149.07983     194.5436    401.63465    99.464076     99.76134    107.79892
   12900    46.641509   -15144.866    194.97485    70.166223    147.93566    366.82265    99.489964    99.783953    107.99314
   13000    45.825983   -15145.301    152.14896    12.857105     78.70642    364.88334    99.518598    99.819079    108.19177
   13100    42.617054   -15145.708    103.72204   -42.665066    9.0621004    344.76909    99.541961    99.855485    108.39315
   13200    39.106559   -15146.062    52.548692   -102.94476   -47.741393    308.33223    99.554255    99.884484     108.5942
   13300    37.598978   -15146.384    42.710236   -108.80891   -57.621119    294.56074    99.551491    99.901323    108.79104
   13400    38.340617   -15146.697    29.550718   -103.78925   -77.224038    269.66544    99.535948    99.906874    108.98295
   13500     41.27092   -15146.953    6.7955928   -101.29654   -90.836692    212.52001    99.510913    99.901494    109.16769
   13600    42.616141   -15147.165    37.360985   -54.475985   -52.572119    219.13106    99.479479    99.886737    109.34119
   13700    41.942704   -15147.368    98.236821    37.941695    9.7252508    247.04352    99.449008    99.869091    109.50685
   13800    40.429248    -15147.58     139.3684    94.936049    55.341651    267.82749    99.429823     99.85654    109.67068
   13900    38.265873    -15147.84    165.54694    115.95688    68.149702    312.53423    99.426562    99.853564    109.83738
   14000    37.007288    -15148.15    128.19155     68.87946    27.355751    288.33945    99.437855    99.859292    110.01173
   14100    37.798826   -15148.386    44.029468   -19.523864   -50.840563    202.45283    99.454722    99.866574    110.18895
   14200    38.973143    -15148.53    7.3918574   -56.580247   -71.200027    149.95585    99.465958    99.866433    110.35795
   14300    39.300367   -15148.636    37.567289   -14.661067   -26.104067      153.467    99.468623    99.858103     110.5137
   14400     38.43348   -15148.748    71.943205    25.891865    21.066357    168.87139    99.468942     99.84829    110.65944
   14500    36.612199   -15148.854    81.789871     36.25817    56.896725    152.21472    99.472253    99.843144     110.7995
   14600    35.742599   -15148.935    67.219897    21.960306    54.839322    124.86006    99.479114    99.845813    110.93335
   14700     36.14892   -15148.997    54.970954    16.061287    34.925261    113.92631    99.487539    99.854773    111.05932
   14800    37.869977   -15149.033    21.575182   -14.422632   0.11145559    79.036723    99.495951    99.866187    111.17722
   14900    38.658703   -15149.044    16.026706   -19.171736   -12.606304    79.858157    99.501192    99.875768     111.2851
   15000    39.239229   -15149.054    10.705049   -13.923888   -24.479939    70.518974    99.503218    99.882085    111.38483
   15100    37.817224   -15149.048   -5.3361391   -31.122239   -41.978207    57.092029    99.502691    99.883946    111.47704
   15200    36.804338   -15149.053    29.050571   -7.8739913   -14.182976    109.20868    99.498742    99.880597    111.56273
   15300    35.540165   -15149.082      43.6389    2.1734623   -5.3086428    134.05188    99.494202    99.875484    111.64961
   15400     36.00462   -15149.129      79.8348     32.82916    34.977842     171.6974    99.491137    99.871196     111.7423
   15500    37.078007   -15149.217    100.57516    46.400058    35.257308    220.06811    99.492758    99.871773    111.84587
   15600    38.259503   -15149.346    91.450698    25.886608    19.494066    228.97142    99.499821    99.876741    111.96523
   15700    38.353398   -15149.486    59.764576   -15.633888   -15.940034    210.86765    99.508791    99.883058    112.09936
   15800    37.301878   -15149.627    45.247607    -44.68472   -30.513836    210.94138    99.514276    99.886405    112.24383
   15900    36.455364   -15149.788    53.643442   -45.083167   -8.0082704    214.02176     99.51308    99.885537    112.39661
   16000    35.626546   -15149.935    32.752855     -36.7621   -17.028611    152.04928    99.506332    99.883406    112.55546
   16100     35.55314   -15149.994   -21.333349    -63.13789   -49.511061    48.648904    99.495416    99.879076    112.70977
   16200    36.577386   -15149.971   -50.937526   -77.218744   -51.394688   -24.199145    99.478218    99.869295    112.84544
   16300    37.320824   -15149.911   -60.859431   -57.848508   -52.074999   -72.654788     99.45401    99.854126    112.95446
   16400    37.273613   -15149.837    -4.819779    33.365601    8.9676768   -56.792615     99.42711     99.83531    113.03508
   16500    36.027016   -15149.763    58.581085    112.09122     85.07592    -21.42388    99.408989     99.82105    113.09401
   16600    35.030337    -15149.72    107.41664    154.61255    140.71216    26.925226    99.408435    99.820357    113.14049
   16700    34.770307   -15149.733    124.43502    159.08129    135.32047    78.903307    99.428439    99.838159    113.18415
   16800    37.134881   -15149.764     66.56414    81.421988    27.454522    90.815911     99.46563    99.870138    113.23259
   16900    39.111935   -15149.761    22.171519   -3.0426616   -43.121107    112.67832    99.508262    99.901662    113.28818
   17000    39.125387   -15149.731   -31.585106   -88.061264   -100.84107    94.147018     99.54399    99.922575    113.35238
   17100     36.81087   -15149.711   -21.713161   -97.679705   -91.705837    124.24606    99.563545    99.927522    113.42278
   17200    33.397932   -15149.746    23.778348   -60.349054   -48.758579    180.44268    99.567607    99.919681    113.50318
   17300    32.785242   -15149.823    43.476347   -42.046565   -18.856516    191.33212    99.562646     99.90627    113.60008
   17400    34.676829   -15149.904    8.6527777   -71.233556   -40.118615     137.3105      99.5519     99.89129    113.71241
   17500    37.450248   -15149.951   -2.2923739   -60.246497   -26.789116    80.158491    99.533523    99.873275     113.8306
   17600     39.40391   -15149.949    7.1294887   -25.707872    10.968919    36.127419    99.509638    99.854289    113.94482
   17700    38.263337   -15149.912    45.081582    32.093648    82.264392    20.886705    99.485982    99.840162    114.04903
   17800    35.401428   -15149.869    63.742114     64.46489    105.63478    21.126674    99.469717    99.838714    114.14204
   17900    33.247254   -15149.843    43.929915    53.876915    52.028257    25.884573    99.464228    99.851105    114.22557
   18000    33.856119   -15149.811    15.762276    28.111402   -6.4427697    25.618196    99.466566    99.868693    114.30129
   18100    36.598407   -15149.787    22.222595    19.748646   -17.222812    64.141952    99.472704    99.883642    114.37158
   18200    38.164333    -15149.76   -11.249349   -27.414765    -55.10495    48.771669    99.480072     99.89369     114.4416
   18300    38.520941   -15149.729    3.8342915   -17.975566    -33.05785    62.536291    99.483445    99.895715    114.51052
   18400    36.100591   -15149.714    32.554097    13.065572   -1.4936461    86.090364    99.484107    99.892874    114.58063
   18500      33.6896   -15149.699     23.11417    17.293623    11.541833    40.507054    99.486299    99.890111    114.65432
   18600    33.543316    -15149.66   -11.335411   -4.5968841   -21.578217   -7.8311323    99.490169    99.888453    114.72494
   18700    35.585245   -15149.614    3.8189074    17.764628   -12.384064    6.0761582    99.493625     99.88476    114.78654
   18800    38.058903   -15149.568     6.056845    14.219804   -5.7192681    9.6699987    99.498655    99.879496    114.84114
   18900    39.233709   -15149.522    30.402791    18.412059    37.060535    35.735778    99.505285    99.874671    114.89111
   19000    37.903816    -15149.48    12.024837   -3.5734132    12.880712    26.767214     99.51299    99.874632    114.94007
   19100    34.683102   -15149.444    36.142072     31.60336    21.634432    55.188424     99.52024     99.87712    114.98844
   19200    33.323001   -15149.422    33.629533    15.906438    18.791792    66.190368    99.530278    99.882031    115.03984
   19300    34.221219   -15149.401     28.36153   -18.609145    27.802338    75.891398    99.541201    99.889323     115.0961
   19400    36.151947    -15149.38    2.0146071   -52.763391   -6.0580596    64.865271    99.548212    99.899115    115.15792
   19500     38.27324   -15149.349   -33.839353   -69.683739   -72.649604    40.815285    99.547173    99.906341    115.22324
   19600    38.067689    -15149.32     -38.2727   -71.579692   -80.398938     37.16053    99.536671    99.903309    115.28843
   19700     37.01486   -15149.303    17.266816    -29.53293   -10.692668    92.026047    99.517724    99.890176    115.35329
   19800    35.240783    -15149.31    80.414001    40.867738    50.106876    150.26739    99.497148    99.876923    115.42637
   19900    34.850943   -15149.329    72.009701    65.132108    35.686994       115.21     99.48408    99.871257    115.51473
   20000    35.354858   -15149.339    60.016016    66.074478    33.526168    80.447402    99.481557    99.871617    115.61252
Loop time of 4.27946 on 28 procs for 10000 steps with 5538 atoms

Performance: 201.895 ns/day, 0.119 hours/ns, 2336.742 timesteps/s
99.8% CPU use with 28 MPI tasks x 1 OpenMP threads

MPI task timing breakdown:
Section |  min time  |  avg time  |  max time  |%varavg| %total
---------------------------------------------------------------
Pair    | 1.7545     | 2.9062     | 3.5467     |  34.8 | 67.91
Neigh   | 0.010954   | 0.041308   | 0.058307   |   7.6 |  0.97
Comm    | 0.2279     | 0.88135    | 1.956      |  60.8 | 20.59
Output  | 0.0057762  | 0.0058564  | 0.0066608  |   0.2 |  0.14
Modify  | 0.33147    | 0.40587    | 0.51026    |   7.9 |  9.48
Other   |            | 0.03886    |            |       |  0.91

Nlocal:    197.786 ave 272 max 64 min
Histogram: 8 0 0 0 0 0 0 0 9 11
Nghost:    467 ave 598 max 195 min
Histogram: 4 3 1 0 0 0 0 3 5 12
Neighs:    4687.14 ave 7081 max 732 min
Histogram: 5 3 0 0 0 0 0 7 7 6
FullNghs:  0 ave 0 max 0 min
Histogram: 28 0 0 0 0 0 0 0 0 0

Total # of neighbors = 131240
Ave neighs/atom = 23.6981
Neighbor list builds = 253
Dangerous builds = 0
unfix 1
undump 1
shell cd ..
shell mkdir deform
shell cd deform

#--------------------Storing Initial length---------------------
variable tmp equal "lz"
variable L0 equal ${tmp}
variable L0 equal 115.612520404719
print "Initial Length, L0: ${L0}"
Initial Length, L0: 115.612520404719
variable strain equal "v_srate/1e12"

#------------Deform------------------------------
reset_timestep 0
fix 1 all deform 1 z erate 0.0001 units box
fix 2 all nvt temp 100.0 100.0 10.0

variable strain equal "(lz - v_L0)/v_L0"
variable p1 equal "v_strain"
variable p2 equal "-pxx/10000"
variable p3 equal "-pyy/10000"
variable p4 equal "-pzz/10000"
variable p5 equal "lx"
variable p6 equal "ly"
variable p7 equal "lz"
variable p8 equal "temp"
variable p9 equal "pe"
variable p10 equal "ke"
variable p11 equal "-pxy/10000"
variable p13 equal "-pyz/10000"
variable p12 equal "-pxz/10000"
variable fm equal "(v_p2+v_p3+v_p4)/3" ##### Hydrostatic stress

variable fv equal "sqrt((v_p2-v_p3)^2+(v_p3-v_p4)^2+(v_p4-v_p2)^2+6*(v_p11^2+v_p12^2+v_p13^2)/2)" ######Von Mises Stress

variable t equal "v_fm/v_fv"
variable fd equal (((v_p2-v_fm)*(v_p3-v_fm)*(v_p4-v_fm))-v_p11^2*(v_p4-v_fm)-v_p12^2*(v_p3-v_fm)-v_p13^2*(v_p2-v_fm)+2*v_p11*v_p12*v_p13)####Deviatoric Von Mises stress

dump 2 all custom 10000 dump.defo.* id type x y z c_csym c_2[1] c_2[2] c_2[3] c_2[4] c_2[5] c_2[6]
dump            3 all xyz 10000 A_*.xyz
dump            4 all dcd 10000 Ag.dcd

fix def_print all print 100 "${p1} ${p2} ${p3} ${p4} ${p5} ${p6} ${p7} ${p8} ${p9} ${p10} ${p11} ${p12} ${p13} ${fm} ${fv} ${t} ${fd}" file mg001.defo.txt screen no
run 100000
Memory usage per processor = 6.79993 Mbytes
Step Temp TotEng Press Pxx Pyy Pzz Lx Ly Lz
       0    35.354858   -15149.339    60.016016    66.074478    33.526168    80.447402    99.481557    99.871617    115.61252
     100    36.307175   -15149.338    67.930208    37.178617    48.262889    118.34912    99.481557    99.871617    115.61368
     200    36.953889   -15149.334    56.176509    9.7611301    8.5423857    150.22601    99.481557    99.871617    115.61483
     300    36.258078   -15149.327     56.04015    17.737682   -21.231768    171.61454    99.481557    99.871617    115.61599
     400    35.179988   -15149.316    53.949057    10.449139   -15.291661    166.68969    99.481557    99.871617    115.61714
     500    35.149758   -15149.303    64.745342  -0.69200285    15.371094    179.55693    99.481557    99.871617     115.6183
     600    35.155688   -15149.286    61.423319    -11.68723    19.848649    176.10854    99.481557    99.871617    115.61946
     700    35.853058   -15149.266    57.211532   -2.4673663   -4.3687057    178.47067    99.481557    99.871617    115.62061
     800     36.71696   -15149.243    72.044085    5.6957381   -10.260944    220.69746    99.481557    99.871617    115.62177
     900    36.951876   -15149.216    97.391375   -4.8136242    13.945993    283.04176    99.481557    99.871617    115.62293
    1000    36.358793   -15149.188    131.69592    8.2190016    30.423928    356.44482    99.481557    99.871617    115.62408
    1100    34.786487   -15149.158    160.45177    42.633201    33.200804    405.52129    99.481557    99.871617    115.62524
    1200    34.003137   -15149.127     150.1594    29.307578    0.9647918    420.20582    99.481557    99.871617    115.62639
    1300    35.010705   -15149.094    95.456118   -42.706129   -54.337771    383.41225    99.481557    99.871617    115.62755
    1400    36.121489   -15149.058    21.295897   -121.30145   -113.20655    298.39569    99.481557    99.871617    115.62871
    1500    37.529962   -15149.018   -18.326142   -132.30885   -150.25389    227.58431    99.481557    99.871617    115.62986
    1600     37.64795   -15148.977   -26.807987    -122.7644   -140.44228    182.78272    99.481557    99.871617    115.63102
    1700    36.017467   -15148.935   -9.8596474   -105.50461    -92.43789    168.36356    99.481557    99.871617    115.63217
    1800    35.091246   -15148.896    50.239624   -37.862357   -6.1561367    194.73737    99.481557    99.871617    115.63333
    1900    35.010923   -15148.858    99.072302    34.117526    55.152913    207.94647    99.481557    99.871617    115.63449
    2000    35.618364    -15148.82    151.04538    108.26574    108.19605    236.67434    99.481557    99.871617    115.63564
    2100    36.827847   -15148.782    182.75371    151.69312    151.65653    244.91148    99.481557    99.871617     115.6368
    2200    37.801039   -15148.744    218.94036    185.25548    201.14753    270.41807    99.481557    99.871617    115.63796
    2300    37.141526   -15148.706    207.66411     174.5808    193.16477    255.24676    99.481557    99.871617    115.63911
    2400    36.443131    -15148.67    155.19666      135.002    133.20868    197.37929    99.481557    99.871617    115.64027
    2500    35.853835   -15148.635    43.500048    14.504727     16.07169    99.923725    99.481557    99.871617    115.64142
    2600    35.865737     -15148.6   -59.348237   -94.118914   -80.010391   -3.9154049    99.481557    99.871617    115.64258
    2700    36.424014   -15148.564   -169.82244   -193.77764   -183.29179   -132.39788    99.481557    99.871617    115.64374
    2800    37.598612   -15148.527   -243.37233   -242.96914     -248.191   -238.95685    99.481557    99.871617    115.64489
    2900    37.534898   -15148.488   -274.12617   -243.77625   -261.88354   -316.71872    99.481557    99.871617    115.64605
    3000    36.729017   -15148.449   -232.18501   -176.90104   -194.34503   -325.30897    99.481557    99.871617     115.6472
    3100    34.950646   -15148.412   -162.12369   -99.836405   -80.159207   -306.37546    99.481557    99.871617    115.64836
    3200    34.324543   -15148.375   -45.810215    46.291675    61.974362   -245.69668    99.481557    99.871617    115.64952
    3300     35.27723   -15148.338    36.651138    165.53657     146.4786   -202.06175    99.481557    99.871617    115.65067
    3400    37.446065     -15148.3     110.8233    268.15448    223.18051   -158.86509    99.481557    99.871617    115.65183
    3500    38.666744   -15148.258    124.35623    280.16334    248.23682   -155.33148    99.481557    99.871617    115.65298
    3600    38.324834   -15148.215    89.469918    237.68233    215.22533   -184.49791    99.481557    99.871617    115.65414
    3700    36.364149   -15148.173    26.620588    176.52644    132.81626   -229.48093    99.481557    99.871617     115.6553
    3800    34.214005   -15148.132    -57.91454    78.991748    40.078842   -292.81421    99.481557    99.871617    115.65645
    3900    34.415475    -15148.09   -172.51834   -71.273972   -74.191702   -372.08934    99.481557    99.871617    115.65761
    4000     35.54035   -15148.046   -246.69796   -179.69119   -148.37447   -412.02823    99.481557    99.871617    115.65877
    4100     37.04875       -15148   -313.64388   -259.30148   -240.90355   -440.72661    99.481557    99.871617    115.65992
    4200    37.741328   -15147.951   -295.96968   -260.90948   -226.91612   -400.08343    99.481557    99.871617    115.66108
    4300    36.917334   -15147.903   -266.03049   -242.93466   -184.82957   -370.32725    99.481557    99.871617    115.66223
    4400    35.734562   -15147.855   -176.60593   -141.33987    -85.43933   -303.03857    99.481557    99.871617    115.66339
    4500    35.555235   -15147.808   -70.662432   -5.6974644    34.251642   -240.54147    99.481557    99.871617    115.66455
    4600    37.177491    -15147.76    39.596855    139.82378     153.2478   -174.28102    99.481557    99.871617     115.6657
    4700    38.758251   -15147.711    107.59713    211.11436    219.68485   -108.00782    99.481557    99.871617    115.66686
    4800    38.996752    -15147.66    170.09004     266.5105    275.65429   -31.894669    99.481557    99.871617    115.66801
    4900    38.372661   -15147.609    179.36062    256.16089    259.49002    22.430948    99.481557    99.871617    115.66917
    5000     36.21174    -15147.56     159.0878    217.41991    205.21497    54.628508    99.481557    99.871617    115.67033
    5100    35.687744   -15147.512    97.555536    143.93414    94.530779    54.201687    99.481557    99.871617    115.67148
    5200    35.965803   -15147.464   -8.6033764   -1.4954112   -55.820257    31.505539    99.481557    99.871617    115.67264
    5300    37.613639   -15147.414   -114.81467   -144.86823    -190.0308   -9.5449764    99.481557    99.871617     115.6738
    5400    38.543868   -15147.362   -207.75374   -277.21469   -296.22157   -49.824956    99.481557    99.871617    115.67495
    5500    38.686036   -15147.309   -217.86779   -310.17503   -319.72044   -23.707896    99.481557    99.871617    115.67611
    5600    37.314561   -15147.257   -191.81503   -292.34465   -295.23828    12.137841    99.481557    99.871617    115.67726
    5700    36.797599   -15147.207   -113.51836   -207.26795   -212.63922    79.352078    99.481557    99.871617    115.67842
    5800    35.887615   -15147.158   -16.530171   -111.65271   -99.853098     161.9153    99.481557    99.871617    115.67958
    5900     36.87782   -15147.108    99.338803    14.921165    39.078226    244.01702    99.481557    99.871617    115.68073
    6000    37.811187   -15147.058    225.13671    159.75136    173.24077    342.41799    99.481557    99.871617    115.68189
    6100    38.221178   -15147.008    358.43189    287.94261    328.03503    459.31804    99.481557    99.871617    115.68304
    6200    37.664371   -15146.958    433.58904    364.24598    395.29562    541.22553    99.481557    99.871617     115.6842
    6300    36.990113   -15146.909     439.9339    365.52294    376.64038    577.63839    99.481557    99.871617    115.68536
    6400    37.297068   -15146.861    330.49251    247.49746    245.81349    498.16657    99.481557    99.871617    115.68651
    6500    37.740287   -15146.811    172.35307    64.713032    55.869128    396.47706    99.481557    99.871617    115.68767
    6600    38.343351   -15146.759    8.7622578   -116.76394   -133.99718    277.04789    99.481557    99.871617    115.68882
    6700    37.591876   -15146.706   -110.48946   -226.66931   -279.54493    174.74585    99.481557    99.871617    115.68998
    6800    37.274979   -15146.653   -232.21501   -338.15111   -403.29508    44.801164    99.481557    99.871617    115.69114
    6900    36.680181     -15146.6   -284.88148   -404.57661   -432.38938   -17.678447    99.481557    99.871617    115.69229
    7000    37.040422   -15146.546   -254.00272   -370.52769    -384.6707   -6.8097596    99.481557    99.871617    115.69345
    7100    36.783527   -15146.492   -143.76505   -246.09426   -256.71224    71.511341    99.481557    99.871617    115.69461
    7200    38.813479   -15146.437    21.729508   -79.235775   -44.023584    188.44788    99.481557    99.871617    115.69576
    7300    39.528311   -15146.382    200.26494    111.73149    182.51387    306.54947    99.481557    99.871617    115.69692
    7400    38.955107   -15146.327    331.12858    274.29362    343.07089    376.02122    99.481557    99.871617    115.69807
    7500    38.825403   -15146.271    403.90323    386.43629    436.89928    388.37413    99.481557    99.871617    115.69923
    7600    38.503736   -15146.217    368.12199    371.70286    412.65567    320.00745    99.481557    99.871617    115.70039
    7700    38.074699   -15146.163    292.47299    308.94495    335.48106    232.99298    99.481557    99.871617    115.70154
    7800    38.729301   -15146.106    142.73644    157.73352    188.33499     82.14081    99.481557    99.871617     115.7027
    7900    38.711262   -15146.048   -36.682857   -3.4924516    -23.83837   -82.717751    99.481557    99.871617    115.70385
    8000      38.7319   -15145.989   -215.35586   -175.82689   -226.10975   -244.13095    99.481557    99.871617    115.70501
    8100    37.905713    -15145.93    -360.2839   -326.31411   -369.55901   -384.97858    99.481557    99.871617    115.70617
    8200    37.445113   -15145.869   -438.65142   -388.89856   -455.63581   -471.41989    99.481557    99.871617    115.70732
    8300    37.303797   -15145.809   -408.26853   -353.18495   -420.86303    -450.7576    99.481557    99.871617    115.70848
    8400    38.050045   -15145.749   -271.37707   -193.02398   -258.26283    -362.8444    99.481557    99.871617    115.70963
    8500     38.80565   -15145.688   -120.76417   -39.308516   -57.341185   -265.64281    99.481557    99.871617    115.71079
    8600    39.203601   -15145.627    34.983254    129.25727    142.93693   -167.24444    99.481557    99.871617    115.71195
    8700    39.024434   -15145.566    182.55551    300.73066    315.04325   -68.107389    99.481557    99.871617     115.7131
    8800    38.105719   -15145.506    243.76454    366.40409    398.68626   -33.796738    99.481557    99.871617    115.71426
    8900    37.707333   -15145.448    256.21981    387.33521     427.8997   -46.575465    99.481557    99.871617    115.71542
    9000     37.80985   -15145.388    151.25124    277.63188    316.37813   -140.25629    99.481557    99.871617    115.71657
    9100     37.82868   -15145.328    40.223872    146.19502    191.45775   -216.98115    99.481557    99.871617    115.71773
    9200    38.803484   -15145.267   -107.92351   -13.398878    1.2651327   -311.63678    99.481557    99.871617    115.71888
    9300    38.782461   -15145.203    -300.4243   -218.18624   -226.91678   -456.16988    99.481557    99.871617    115.72004
    9400    38.636458   -15145.138   -424.09804   -367.26809   -366.26417   -538.76185    99.481557    99.871617     115.7212
    9500    37.863411   -15145.074   -448.27558   -396.10977   -405.60616   -543.11082    99.481557    99.871617    115.72235
    9600    37.521299   -15145.011   -403.16485   -350.68685   -369.89404   -488.91367    99.481557    99.871617    115.72351
    9700    38.282685   -15144.949   -303.17343   -239.42921   -252.07571   -418.01536    99.481557    99.871617    115.72466
    9800    38.543396   -15144.886   -155.06077   -82.996445   -83.915398   -298.27047    99.481557    99.871617    115.72582
    9900    38.986376   -15144.823    26.563239    118.79227    112.62339   -151.72594    99.481557    99.871617    115.72698
   10000     40.08901   -15144.759     191.8071    300.60784     288.3744   -13.560949    99.481557    99.871617    115.72813
   10100    40.136638   -15144.695    316.90237    421.92789    419.92619    108.85302    99.481557    99.871617    115.72929
   10200    39.300257   -15144.633    365.06062    445.03808    461.23343    188.91036    99.481557    99.871617    115.73045
   10300    39.017601   -15144.572    336.71738    380.51393    404.37967    225.25855    99.481557    99.871617     115.7316
   10400    39.764491    -15144.51    203.78658    211.77947    224.01929    175.56097    99.481557    99.871617    115.73276
   10500    39.997306   -15144.447    44.908868    12.317758    26.075685    96.333159    99.481557    99.871617    115.73391
   10600    40.401486   -15144.383   -109.76611   -180.69694   -167.22469    18.623295    99.481557    99.871617    115.73507
   10700    39.610453   -15144.318   -279.65557    -373.7059   -375.90331   -89.357514    99.481557    99.871617    115.73623
   10800    38.637321   -15144.254   -346.12106   -451.47553   -458.50493   -128.38274    99.481557    99.871617    115.73738
   10900    37.782118   -15144.191   -335.50174   -450.98559   -449.21587   -106.30375    99.481557    99.871617    115.73854
   11000    38.242029   -15144.129    -276.5688   -394.58317   -379.45489    -55.66833    99.481557    99.871617    115.73969
   11100    39.265211   -15144.066   -102.86311   -190.65393   -199.46998    81.534574    99.481557    99.871617    115.74085
   11200    40.389643   -15144.003    94.603565    41.524606   -2.9884811    245.27457    99.481557    99.871617    115.74201
   11300    41.111989   -15143.939    278.77459    233.68858    204.92474    397.71044    99.481557    99.871617    115.74316
   11400    40.261841   -15143.876    432.03169    392.16358    371.28648      532.645    99.481557    99.871617    115.74432
   11500    38.885148   -15143.815     522.6862    489.65672    453.51534    624.88654    99.481557    99.871617    115.74547
   11600    39.273895   -15143.756    526.89113     478.0879     441.9938    660.59168    99.481557    99.871617    115.74663
   11700    39.178011   -15143.697    424.32171    352.58535    322.23048    598.14928    99.481557    99.871617    115.74779
   11800    40.848128   -15143.635    251.97466    138.29571    145.56025    472.06803    99.481557    99.871617    115.74894
   11900    40.684248    -15143.57    31.135619   -114.96059   -95.847549    304.21499    99.481557    99.871617     115.7501
   12000    39.481334   -15143.505    -193.9126   -351.27875   -344.69969    114.24064    99.481557    99.871617    115.75126
   12100    38.979594   -15143.441    -339.8833   -511.59079    -485.8043   -22.254813    99.481557    99.871617    115.75241
   12200    37.575065   -15143.377   -348.25441   -522.34975   -482.34138   -40.072101    99.481557    99.871617    115.75357
   12300    38.558168   -15143.313   -276.11745     -432.193   -388.80964   -7.3497227    99.481557    99.871617    115.75472
   12400    40.532589   -15143.247   -142.30558   -263.88758   -219.39584    56.366668    99.481557    99.871617    115.75588
   12500    41.993907   -15143.178    21.009543    -58.89282   -21.390064    143.31151    99.481557    99.871617    115.75704
   12600    41.313158    -15143.11    219.40004    190.63544    206.73089     260.8338    99.481557    99.871617    115.75819
   12700    40.993655   -15143.042    367.77377    366.87745    385.15097    351.29288    99.481557    99.871617    115.75935
   12800    40.142391   -15142.978    465.98093    503.99563     503.8219    390.12525    99.481557    99.871617     115.7605
   12900    40.380786   -15142.913    462.97447    518.90338    504.78075    365.23928    99.481557    99.871617    115.76166
   13000    39.966563   -15142.848    340.42807    396.79714    367.31964    257.16743    99.481557    99.871617    115.76282
   13100     42.06103   -15142.781    129.12145     168.8814    130.74693    87.736008    99.481557    99.871617    115.76397
   13200    42.048137   -15142.709   -131.32869   -117.63279   -146.30623   -130.04706    99.481557    99.871617    115.76513
   13300    41.459731   -15142.637   -344.68333   -349.98052   -364.20057   -319.86888    99.481557    99.871617    115.76629
   13400    39.914693   -15142.566   -456.63404   -462.79143   -488.54046   -418.57024    99.481557    99.871617    115.76744
   13500    38.458032   -15142.497    -487.5424   -496.53072   -501.28843   -464.80806    99.481557    99.871617     115.7686
   13600    39.570204   -15142.428   -443.79149   -441.77056   -431.16317   -458.44074    99.481557    99.871617    115.76975
   13700    39.944915   -15142.357     -317.914   -269.41254   -276.65454   -407.67492    99.481557    99.871617    115.77091
   13800    41.509308   -15142.285   -149.95471   -49.286114   -67.130769   -333.44726    99.481557    99.871617    115.77207
   13900    41.445192   -15142.212    76.811948    213.36515    214.77378   -197.70309    99.481557    99.871617    115.77322
   14000     40.92676    -15142.14    283.30793    446.18056    482.11136   -78.368115    99.481557    99.871617    115.77438
   14100    39.990301   -15142.071    392.15713    583.22431    607.51243   -14.265345    99.481557    99.871617    115.77553
   14200    39.681783   -15142.003    368.82818    577.42747    566.98776    -37.93068    99.481557    99.871617    115.77669
   14300    40.826184   -15141.934    236.04172    423.81661    407.15951   -122.85096    99.481557    99.871617    115.77785
   14400    41.721476   -15141.861    37.557298    184.05306    170.74832   -242.12949    99.481557    99.871617      115.779
   14500    41.835371   -15141.787   -172.09382   -77.403319   -79.094945   -359.78319    99.481557    99.871617    115.78016
   14600    40.679956   -15141.713   -350.53145    -281.7733   -304.39494   -465.42611    99.481557    99.871617    115.78131
   14700    39.533443    -15141.64     -494.009   -449.10519   -491.05826   -541.86354    99.481557    99.871617    115.78247
   14800    38.851184   -15141.568   -575.77382   -560.78148   -588.62349    -577.9165    99.481557    99.871617    115.78363
   14900    39.327794   -15141.497   -535.23923   -528.83062   -535.24818   -541.63889    99.481557    99.871617    115.78478
   15000    41.086006   -15141.423   -394.65581   -376.85937   -356.07919   -451.02886    99.481557    99.871617    115.78594
   15100    42.247032   -15141.348    -185.0677   -149.47779   -112.49034   -293.23498    99.481557    99.871617     115.7871
   15200      43.0125   -15141.273    71.293479    134.50191    172.92965   -93.551119    99.481557    99.871617    115.78825
   15300    42.829608   -15141.199    272.14801    341.72558    405.29054    69.427922    99.481557    99.871617    115.78941
   15400    41.933511   -15141.127    421.63045     500.8956    566.41279    197.58295    99.481557    99.871617    115.79056
   15500    41.312539   -15141.057    464.63412    556.16988    581.67957     256.0529    99.481557    99.871617    115.79172
   15600    41.226612   -15140.987    423.55313    499.39547    506.04308    265.22084    99.481557    99.871617    115.79288
   15700    42.446634   -15140.915    279.91899    310.94263    326.90777    201.90658    99.481557    99.871617    115.79403
   15800    43.574345   -15140.842    59.141197    36.124375    59.535048    81.764169    99.481557    99.871617    115.79519
   15900    42.629803   -15140.767   -162.69546   -211.06934   -235.09891    -41.91812    99.481557    99.871617    115.79634
   16000    41.505307   -15140.692   -334.11793   -409.09386   -467.35728   -125.90266    99.481557    99.871617     115.7975
   16100    40.806445   -15140.619   -406.48999    -513.6392   -562.61995   -143.21082    99.481557    99.871617    115.79866
   16200    40.611488   -15140.547   -386.67346   -518.09362   -539.82903   -102.09773    99.481557    99.871617    115.79981
   16300    41.349404   -15140.475   -260.85734   -377.81564   -414.45524    9.6988527    99.481557    99.871617    115.80097
   16400    43.179793   -15140.402   -92.846555   -192.78974   -241.60733     155.8574    99.481557    99.871617    115.80212
   16500    42.725466   -15140.328    110.60486     16.54806   -10.711185     325.9777    99.481557    99.871617    115.80328
   16600    42.883731   -15140.256    350.24278    253.78374    258.67758      538.267    99.481557    99.871617    115.80444
   16700    41.401503   -15140.186    521.57725    453.00998    445.94489    665.77688    99.481557    99.871617    115.80559
   16800    41.110172   -15140.118    572.95907    523.46773    505.25898    690.15051    99.481557    99.871617    115.80675
   16900    42.194263    -15140.05    537.29083    475.23211    491.85893    644.78145    99.481557    99.871617    115.80791
   17000    43.143319   -15139.979    375.99583    286.84627     317.6061    523.53513    99.481557    99.871617    115.80906
   17100    43.537894   -15139.906     158.0314     59.67561    64.167777    350.25081    99.481557    99.871617    115.81022
   17200    43.202641   -15139.831   -37.605182   -146.29189   -164.89762    198.37396    99.481557    99.871617    115.81137
   17300    41.551053   -15139.757   -205.50998   -351.39756   -344.30739    79.175011    99.481557    99.871617    115.81253
   17400    41.104187   -15139.684   -301.10873   -478.31343   -433.33203    8.3192727    99.481557    99.871617    115.81369
   17500    40.565047   -15139.612   -345.52954   -501.97668   -490.15456   -44.457364    99.481557    99.871617    115.81484
   17600    42.007424   -15139.538   -296.12511   -430.16326   -434.74749   -23.464573    99.481557    99.871617      115.816
   17700    43.527601   -15139.462   -138.85682   -252.37996   -246.57326    82.382766    99.481557    99.871617    115.81715
   17800    44.294739   -15139.385    66.181276   -14.687784    6.7857393    206.44587    99.481557    99.871617    115.81831
   17900    43.658935   -15139.308     258.2576      214.698    242.53413    317.54066    99.481557    99.871617    115.81947
   18000     43.44792   -15139.232    409.32712    409.53125    429.32185    389.12828    99.481557    99.871617    115.82062
   18100    42.703858   -15139.159    462.29647    490.48114    523.95843    372.44984    99.481557    99.871617    115.82178
   18200    43.026927   -15139.084    402.65925    447.74523     478.8885    281.34404    99.481557    99.871617    115.82294
   18300    43.954637   -15139.008    288.99122    348.30343    348.45977    170.21047    99.481557    99.871617    115.82409
   18400    44.942478   -15138.929    102.82525     163.4672    138.79709    6.2114666    99.481557    99.871617    115.82525
   18500    44.688737   -15138.848   -91.320962   -52.593386   -57.386714   -163.98278    99.481557    99.871617     115.8264
   18600    42.864741   -15138.768   -293.01273   -275.86769   -277.19523   -325.97526    99.481557    99.871617    115.82756
   18700    41.833105    -15138.69   -464.10542   -459.89497   -451.81616   -480.60513    99.481557    99.871617    115.82872
   18800    41.103963   -15138.612   -528.85616   -516.80242   -523.33736    -546.4287    99.481557    99.871617    115.82987
   18900    42.826757   -15138.533   -499.83964   -459.68332   -487.37397   -552.46162    99.481557    99.871617    115.83103
   19000    43.646301   -15138.452    -372.7746   -309.12763   -331.75315   -477.44301    99.481557    99.871617    115.83218
   19100    45.034091   -15138.369   -165.18679   -65.130763   -94.022503   -336.40711    99.481557    99.871617    115.83334
   19200    44.155458   -15138.287    44.001079     186.5625    152.89003   -207.44929    99.481557    99.871617     115.8345
   19300    43.025894   -15138.208    206.04625    383.32329    350.03365   -115.21819    99.481557    99.871617    115.83565
   19400    42.066786   -15138.131    330.92157    536.81597    491.71242   -35.763671    99.481557    99.871617    115.83681
   19500    42.183682   -15138.054     364.5992    561.86279    541.20049   -9.2656838    99.481557    99.871617    115.83796
   19600    43.986019   -15137.976    274.23059    448.90255     441.7519   -67.962672    99.481557    99.871617    115.83912
   19700    44.835855   -15137.895    107.64642    261.82602    246.20109   -185.08784    99.481557    99.871617    115.84028
   19800    44.779175   -15137.812   -106.87293    20.213271   -5.5564617   -335.27559    99.481557    99.871617    115.84143
   19900    43.194399   -15137.729   -333.31133   -256.12089   -255.84652   -487.96657    99.481557    99.871617    115.84259
   20000    42.885391   -15137.648    -479.4453   -438.16598   -403.46938   -596.70056    99.481557    99.871617    115.84375
   20100    41.703819   -15137.566   -529.75145   -513.66119   -458.42365   -617.16952    99.481557    99.871617     115.8449
   20200    43.007518   -15137.485   -493.01387   -482.07467   -432.45527   -564.51166    99.481557    99.871617    115.84606
   20300    44.073801   -15137.403   -377.68945    -358.2448   -325.68327   -449.14027    99.481557    99.871617    115.84721
   20400     44.98174   -15137.319    -188.3381   -176.43572   -116.58091   -271.99765    99.481557    99.871617    115.84837
   20500    45.342181   -15137.236    30.848306    56.727706    116.99668   -81.179466    99.481557    99.871617    115.84953
   20600    44.140055   -15137.154    248.82453    300.13262    325.37703    120.96393    99.481557    99.871617    115.85068
   20700     44.63917   -15137.074    387.48068    458.22689    453.27784     250.9373    99.481557    99.871617    115.85184
   20800    44.223215   -15136.996    436.68254    500.59236    496.82385    312.63141    99.481557    99.871617    115.85299
   20900    45.537403   -15136.917    375.33339     404.7827    409.38197    311.83551    99.481557    99.871617    115.85415
   21000    45.745282   -15136.835    233.03696    237.72473    218.38071    243.00544    99.481557    99.871617    115.85531
   21100    45.314175   -15136.753    61.344602    39.366019    1.6716285    142.99616    99.481557    99.871617    115.85646
   21200    44.882935   -15136.671   -120.60724   -189.02029   -198.11261    25.311182    99.481557    99.871617    115.85762
   21300    44.402588    -15136.59   -268.95587   -369.70391   -361.96034   -75.203357    99.481557    99.871617    115.85878
   21400    43.670875    -15136.51   -332.30876   -432.18281   -465.99314   -98.750331    99.481557    99.871617    115.85993
   21500    44.023434   -15136.429   -315.29017   -427.73161   -460.82806   -57.310849    99.481557    99.871617    115.86109
   21600    44.632869   -15136.348    -219.9909   -335.09141   -362.77593    37.894651    99.481557    99.871617    115.86224
   21700    45.689793   -15136.266   -33.193005   -147.76652   -156.26545    204.45295    99.481557    99.871617     115.8634
   21800     44.96077   -15136.185    171.23713    71.114022    63.999915    378.59745    99.481557    99.871617    115.86456
   21900    45.326585   -15136.105    358.11035    284.45866     262.6899     527.1825    99.481557    99.871617    115.86571
   22000      44.8868   -15136.026     471.7361    414.90021    387.34096    612.96714    99.481557    99.871617    115.86687
   22100    44.762927   -15135.948    516.95306     445.3716     448.4616    657.02598    99.481557    99.871617    115.86802
   22200    45.131003    -15135.87    462.34705    379.36974    383.20874    624.46266    99.481557    99.871617    115.86918
   22300     45.71109    -15135.79    333.70573    254.69762     228.0577    518.36188    99.481557    99.871617    115.87034
   22400     46.23039    -15135.71    156.85428    54.898538    35.161114     380.5032    99.481557    99.871617    115.87149
   22500    45.209642   -15135.628   -27.087161   -175.66205   -147.29205    241.69261    99.481557    99.871617    115.87265
   22600    44.324225   -15135.547    -187.5874   -348.50098   -329.59233     115.3311    99.481557    99.871617     115.8738
   22700    44.834705   -15135.466   -282.62636   -430.38095   -453.17473    35.676599    99.481557    99.871617    115.87496
   22800    44.301547   -15135.384   -292.29921   -450.39587   -441.04121    14.539455    99.481557    99.871617    115.87612
   22900    45.817269   -15135.301   -264.18232   -417.74141   -376.18298      1.37744    99.481557    99.871617    115.87727
   23000    46.583316   -15135.216   -135.37924    -235.3107   -222.69862    51.871598    99.481557    99.871617    115.87843
   23100    46.912183   -15135.131    23.467696   -27.345056   -17.792806    115.54095    99.481557    99.871617    115.87959
   23200    46.358085   -15135.046     192.3845    186.74784    209.54337    180.86231    99.481557    99.871617    115.88074
   23300    45.901899   -15134.962    325.59701    350.28128    394.03079    232.47896    99.481557    99.871617     115.8819
   23400    46.748888   -15134.879    401.63122    450.20242    491.35278    263.33847    99.481557    99.871617    115.88305
   23500    46.840767   -15134.795    398.60348    472.04768    485.59515    238.16761    99.481557    99.871617    115.88421
   23600    47.877186   -15134.709    285.50985    354.94972      372.637    128.94283    99.481557    99.871617    115.88537
   23700    47.058105   -15134.621    107.24853    150.69862    188.61529   -17.568313    99.481557    99.871617    115.88652
   23800    46.305949   -15134.534   -86.714356   -48.738594   -33.742982   -177.66149    99.481557    99.871617    115.88768
   23900    45.737948   -15134.447   -287.38903   -264.71618    -272.4797   -324.97121    99.481557    99.871617    115.88883
   24000    45.549577   -15134.361   -401.55005     -382.199    -408.1064   -414.34476    99.481557    99.871617    115.88999
   24100    44.904357   -15134.273   -457.83197   -436.76634   -462.61765    -474.1119    99.481557    99.871617    115.89115
   24200    46.063276   -15134.185    -451.0211    -403.8644   -446.14445   -503.05446    99.481557    99.871617     115.8923
   24300    46.841057   -15134.096   -352.15338   -266.62355   -315.68338   -474.15321    99.481557    99.871617    115.89346
   24400    46.514113   -15134.006   -214.35878    -90.71814   -142.38225   -409.97595    99.481557    99.871617    115.89461
   24500    46.084666   -15133.917   -24.208919    124.51914    89.205665   -286.35156    99.481557    99.871617    115.89577
   24600    45.668522    -15133.83    152.57989    327.82876    301.50657   -171.59566    99.481557    99.871617    115.89693
   24700    45.455001   -15133.744    270.10143    478.02001    433.24293   -100.95864    99.481557    99.871617    115.89808
   24800    46.872669   -15133.656    277.27671    479.16402     453.7202   -101.05408    99.481557    99.871617    115.89924
   24900    47.007749   -15133.569    209.24302    384.59733    395.13328   -152.00154    99.481557    99.871617     115.9004
   25000    47.119576   -15133.479      68.9037    214.49531    224.73391   -232.51812    99.481557    99.871617    115.90155
   25100    46.515588   -15133.389   -121.31561   -12.332035    3.4914422   -355.10624    99.481557    99.871617    115.90271
   25200    45.771499   -15133.301   -275.74972   -195.77785    -186.7409   -444.73042    99.481557    99.871617    115.90386
   25300    45.724007   -15133.212   -399.29795   -356.95848   -328.52137   -512.41401    99.481557    99.871617    115.90502
   25400    46.215839   -15133.123   -435.73407   -414.77053   -382.08529   -510.34638    99.481557    99.871617    115.90618
   25500    46.632414   -15133.032   -404.04208   -393.49838   -359.65823   -458.96965    99.481557    99.871617    115.90733
   25600    47.275724   -15132.941   -308.09764   -300.68328   -266.15629   -357.45334    99.481557    99.871617    115.90849
   25700    47.678501    -15132.85   -138.95715   -124.79017   -89.294774   -202.78651    99.481557    99.871617    115.90964
   25800    47.859191    -15132.76    68.403297    100.41428    120.90207   -16.106453    99.481557    99.871617     115.9108
   25900    47.774695   -15132.671    227.42323    263.54028     287.5867    131.14272    99.481557    99.871617    115.91196
   26000    47.633505   -15132.583    340.23805    374.49534    402.85712    243.36169    99.481557    99.871617    115.91311
   26100     47.66565   -15132.496    354.72135    393.22373    399.31423    271.62609    99.481557    99.871617    115.91427
   26200     49.14969   -15132.407    279.41552    301.10575    304.67512     232.4657    99.481557    99.871617    115.91543
   26300    48.866737   -15132.317    171.41864    166.88382    170.11351    177.25861    99.481557    99.871617    115.91658
   26400    47.956047   -15132.228    32.833147    4.5131995    -12.49365    106.47989    99.481557    99.871617    115.91774
   26500     47.25621    -15132.14   -95.740718   -150.78401   -195.77553    59.337379    99.481557    99.871617    115.91889
   26600    47.354237   -15132.052   -204.03691   -284.02938   -338.62596    10.544605    99.481557    99.871617    115.92005
   26700    48.015684   -15131.963   -251.82571   -383.34331   -394.96407    22.830243    99.481557    99.871617    115.92121
   26800     48.15738   -15131.873   -239.80732    -389.2185   -380.97442     50.77095    99.481557    99.871617    115.92236
   26900    48.260689   -15131.784   -103.08743   -240.49398   -258.53149    189.76318    99.481557    99.871617    115.92352
   27000    47.491828   -15131.696    25.960084   -116.89077   -112.19365    306.96468    99.481557    99.871617    115.92467
   27100    47.772316   -15131.609    210.98748     78.42257    95.658973     458.8809    99.481557    99.871617    115.92583
   27200    46.990299   -15131.523    310.33616    206.62396    205.79339    518.59113    99.481557    99.871617    115.92699
   27300    48.184975   -15131.438    379.29233    309.30384     282.6663    545.90686    99.481557    99.871617    115.92814
   27400     48.99313    -15131.35     380.4321    330.42191     289.0806    521.79378    99.481557    99.871617     115.9293
   27500    48.606733   -15131.262    351.76522    297.57999    259.73008     497.9856    99.481557    99.871617    115.93045
   27600    49.214502   -15131.172    261.17505    194.70049     185.0077    403.81697    99.481557    99.871617    115.93161
   27700    47.662275   -15131.084    151.34826    80.698604     42.94863    330.39756    99.481557    99.871617    115.93277
   27800    47.827893   -15130.995    3.5313832   -90.031268   -132.98206    233.60748    99.481557    99.871617    115.93392
   27900    47.911127   -15130.907   -72.004057   -189.91038   -203.39468    177.29289    99.481557    99.871617    115.93508
   28000    48.678299   -15130.817   -155.28425     -295.882   -278.79443    108.82369    99.481557    99.871617    115.93624
   28100    49.233308   -15130.727   -170.34636   -327.82202   -271.56978    88.352707    99.481557    99.871617    115.93739
   28200    49.410126   -15130.635    -134.2564   -272.73166   -229.57366    99.536117    99.481557    99.871617    115.93855
   28300    49.264354   -15130.542   -64.523291   -178.12322   -139.96122    124.51457    99.481557    99.871617     115.9397
   28400    48.385007   -15130.452    5.0191339   -93.852197   -26.785754    135.69535    99.481557    99.871617    115.94086
   28500    49.061865   -15130.362    117.95757    60.392359    118.65247    174.82787    99.481557    99.871617    115.94202
   28600    49.845361    -15130.27     170.7743    158.73282    197.11102    156.47907    99.481557    99.871617    115.94317
   28700    50.668632   -15130.177    215.69612    238.07053    273.87827    135.13956    99.481557    99.871617    115.94433
   28800    50.965983   -15130.083    192.79747    242.91449     259.4701    76.007819    99.481557    99.871617    115.94548
   28900     50.80898   -15129.987    142.83009    213.63737    207.86825    6.9846482    99.481557    99.871617    115.94664
   29000    49.821586   -15129.892    49.997629    129.13509    115.47876    -94.62097    99.481557    99.871617     115.9478
   29100    48.360409   -15129.799   -55.553194    26.698903    9.2681353   -202.62662    99.481557    99.871617    115.94895
   29200    48.326442   -15129.705   -165.79152   -73.693276   -103.72472   -319.95655    99.481557    99.871617    115.95011
   29300    49.118646   -15129.611   -259.56841    -166.1651   -197.98648   -414.55364    99.481557    99.871617    115.95127
   29400    49.698433   -15129.514   -320.37749   -224.82258    -268.0463   -468.26361    99.481557    99.871617    115.95242
   29500    49.555773   -15129.416    -300.1706   -205.21828   -231.29258   -464.00095    99.481557    99.871617    115.95358
   29600    49.573559   -15129.318   -211.65948   -96.913098   -129.19433   -408.87102    99.481557    99.871617    115.95473
   29700     48.86177   -15129.223   -134.47392   -5.0127678   -50.868867   -347.54011    99.481557    99.871617    115.95589
   29800    49.251637   -15129.128   -49.084144    87.694238    53.733106   -288.67978    99.481557    99.871617    115.95705
   29900    48.320484   -15129.035    29.324346    151.10827    160.36435   -223.49959    99.481557    99.871617     115.9582
   30000    50.113055    -15128.94     72.92033    201.96679     206.0817   -189.28749    99.481557    99.871617    115.95936
   30100    50.475267   -15128.844    66.352039    201.60662    199.41617   -201.96667    99.481557    99.871617    115.96051
   30200     50.88909   -15128.746    34.945657    160.79749    174.63588   -230.59639    99.481557    99.871617    115.96167
   30300    49.975977   -15128.649   -22.275732    86.485846    118.16043   -271.47347    99.481557    99.871617    115.96283
   30400    48.820984   -15128.554   -111.53913   -10.566974    15.730898    -339.7813    99.481557    99.871617    115.96398
   30500    49.232652   -15128.458   -224.64231   -119.24591   -130.38152   -424.29948    99.481557    99.871617    115.96514
   30600    49.361211   -15128.362   -284.17027   -184.05021    -217.4939   -450.96668    99.481557    99.871617    115.96629
   30700    50.726223   -15128.264   -280.17782   -208.41767   -211.81897   -420.29682    99.481557    99.871617    115.96745
   30800    50.817574   -15128.165   -220.53388   -160.39779   -158.14331   -343.06053    99.481557    99.871617    115.96861
   30900    51.658016   -15128.066   -158.26941   -90.698228   -112.62954   -271.48046    99.481557    99.871617    115.96976
   31000    49.592956   -15127.968   -40.237615   0.68138045    9.6434927   -131.03772    99.481557    99.871617    115.97092
   31100    49.754354   -15127.872     56.54321     85.02002    103.13498   -18.525367    99.481557    99.871617    115.97208
   31200    50.757795   -15127.777    121.54089    149.13429    166.68344    48.804931    99.481557    99.871617    115.97323
   31300    51.822682   -15127.681    181.57343    195.23057    217.19991     132.2898    99.481557    99.871617    115.97439
   31400    52.343089   -15127.584    168.91654    151.51478    189.40679    165.82804    99.481557    99.871617    115.97554
   31500      52.6901   -15127.485    150.41033    98.502817     168.9798    183.74836    99.481557    99.871617     115.9767
   31600    51.669834   -15127.388    83.213541    19.657315    75.280315    154.70299    99.481557    99.871617    115.97786
   31700    49.817801   -15127.293    25.492139   -53.647643   -6.5978887    136.72195    99.481557    99.871617    115.97901
   31800    50.113531   -15127.199   -28.879413   -121.29811   -97.722763    132.38264    99.481557    99.871617    115.98017
   31900    50.832318   -15127.104   -56.028856   -160.20429   -147.56868    139.68639    99.481557    99.871617    115.98132
   32000     51.88818   -15127.008    -38.99781   -147.97052   -169.64916    200.62624    99.481557    99.871617    115.98248
   32100    52.318113   -15126.911   -12.967897   -116.77041   -181.00658     258.8733    99.481557    99.871617    115.98364
   32200    51.359611   -15126.814    15.303693   -88.486964    -162.9964    297.39445    99.481557    99.871617    115.98479
   32300    50.786286    -15126.72    103.27807    -13.09635   -62.141208    385.07176    99.481557    99.871617    115.98595
   32400    51.066192   -15126.628    158.74267    53.385337   -1.1995009    424.04216    99.481557    99.871617     115.9871
   32500    50.557347   -15126.535    206.72438    121.19759    51.204105    447.77145    99.481557    99.871617    115.98826
   32600    51.186099    -15126.44    211.33623    125.14472    69.624714    439.23926    99.481557    99.871617    115.98942
   32700    53.194508   -15126.344    203.62311    107.42955    89.877224    413.56256    99.481557    99.871617    115.99057
   32800    53.021675   -15126.247    180.10685    75.126101    71.339715    393.85473    99.481557    99.871617    115.99173
   32900    51.381058    -15126.15    152.45384    46.517564     44.96584    365.87813    99.481557    99.871617    115.99289
   33000    50.902771   -15126.055    117.74885    5.4772071    28.531403    319.23795    99.481557    99.871617    115.99404
   33100    50.650533    -15125.96    92.497369   -30.377412    17.226058    290.64346    99.481557    99.871617     115.9952
   33200     51.69398   -15125.865    49.062657   -83.389372   -29.401817    259.97916    99.481557    99.871617    115.99635
   33300    53.060908   -15125.767     13.48194   -110.36294   -79.503846    230.31261    99.481557    99.871617    115.99751
   33400    53.566913   -15125.667   -1.9852727   -106.31265   -83.835834    184.19267    99.481557    99.871617    115.99867
   33500    53.420323   -15125.567    10.458761   -84.560774   -46.768986    162.70604    99.481557    99.871617    115.99982
   33600    52.061727   -15125.468    30.442809    -33.30527   -24.498457    149.13215    99.481557    99.871617    116.00098
   33700    51.932988    -15125.37    49.663982    12.026381    8.4882639     128.4773    99.481557    99.871617    116.00213
   33800    51.823291   -15125.273    31.799622    16.407921    6.7257671    72.265179    99.481557    99.871617    116.00329
   33900    52.886979   -15125.173    27.086475    29.617136    18.438574    33.203716    99.481557    99.871617    116.00445
   34000     53.45425   -15125.072    20.612342    24.525876    45.437685   -8.1265341    99.481557    99.871617     116.0056
   34100    54.270178   -15124.969    9.6266961    38.069386    55.733984   -64.923281    99.481557    99.871617    116.00676
   34200    53.509272   -15124.866    1.3972579    50.964599    61.023553   -107.79638    99.481557    99.871617    116.00792
   34300    52.174831   -15124.766   -32.809907    26.938716    42.074882   -167.44332    99.481557    99.871617    116.00907
   34400     51.88445   -15124.665   -76.207321   -3.6235538     5.563417   -230.56183    99.481557    99.871617    116.01023
   34500    52.842499   -15124.564    -111.4387   -35.599048   -16.257535   -282.45952    99.481557    99.871617    116.01138
   34600    53.478826   -15124.462   -134.43248   -56.038292   -29.646562   -317.61259    99.481557    99.871617    116.01254
   34700    54.414774   -15124.357   -127.76553   -23.953435   -22.782883   -336.56027    99.481557    99.871617     116.0137
   34800    53.493835   -15124.252   -120.96799    2.5210568   -15.233998   -350.19103    99.481557    99.871617    116.01485
   34900    53.611664   -15124.149   -134.52222   -8.9570733   -29.971535   -364.63805    99.481557    99.871617    116.01601
   35000    52.219118   -15124.046   -108.72838    27.152597    2.5686496   -355.90639    99.481557    99.871617    116.01716
   35100    51.569256   -15123.947   -105.34638    47.395889    5.3631205   -368.79816    99.481557    99.871617    116.01832
   35200    52.566935   -15123.844   -85.178707    86.368859    18.656792   -360.56177    99.481557    99.871617    116.01948
   35300    54.132251    -15123.74   -97.044698     75.81123 -0.035584182   -366.90974    99.481557    99.871617    116.02063
   35400     54.87614   -15123.634    -93.40546    70.686353     23.27402   -374.17675    99.481557    99.871617    116.02179
   35500    53.885668   -15123.529   -123.60289    37.609736   -14.393897   -394.02451    99.481557    99.871617    116.02294
   35600    53.111004   -15123.425   -147.04522   -3.0964765   -36.138691   -401.90048    99.481557    99.871617     116.0241
   35700     51.56216   -15123.322   -131.01643   -17.792892   -1.2062055   -374.05019    99.481557    99.871617    116.02526
   35800    52.016929    -15123.22   -82.836169    7.5250919    37.088415   -293.12201    99.481557    99.871617    116.02641
   35900    53.710695   -15123.117   -69.146619    6.7691458    38.216237   -252.42524    99.481557    99.871617    116.02757
   36000    55.271995   -15123.011   -94.526045   -40.170489   -4.8129463    -238.5947    99.481557    99.871617    116.02873
   36100     55.23627   -15122.905   -47.734999   -25.004549     36.69681   -154.89726    99.481557    99.871617    116.02988
   36200    54.180189   -15122.799   -31.397227   -32.292893    40.243895   -102.14268    99.481557    99.871617    116.03104
   36300     53.91161   -15122.697   -7.0485034   -17.638035    39.310171   -42.817646    99.481557    99.871617    116.03219
   36400    53.772534   -15122.595    12.675243    5.8405438    30.128826     2.056359    99.481557    99.871617    116.03335
   36500    54.310145   -15122.492   0.33749739   -24.023787 -0.060075412    25.096355    99.481557    99.871617    116.03451
   36600    55.739127   -15122.387   -9.6656066   -43.270579   -11.903426    26.177186    99.481557    99.871617    116.03566
   36700    55.628303   -15122.282   -38.043411   -72.740751   -48.793226    7.4037425    99.481557    99.871617    116.03682
   36800    55.671997   -15122.177   -21.477563    -41.65756   -63.719769     40.94464    99.481557    99.871617    116.03797
   36900     55.10178   -15122.072    7.3051165   -14.905747   -53.281112    90.102208    99.481557    99.871617    116.03913
   37000    53.750817   -15121.971    37.716203   -14.767435    -9.404564    137.32061    99.481557    99.871617    116.04029
   37100    54.760998    -15121.87    69.304287 0.0043925122    15.636291    192.27218    99.481557    99.871617    116.04144
   37200    54.488929   -15121.768     129.5373    62.391708    42.573648    283.64654    99.481557    99.871617     116.0426
   37300    55.799596   -15121.665    165.15643    84.464878    69.321216    341.68319    99.481557    99.871617    116.04376
   37400    56.284737   -15121.562    200.68469    90.041353    97.674817     414.3379    99.481557    99.871617    116.04491
   37500    54.964629    -15121.46    210.33627    101.82908    74.143429    455.03631    99.481557    99.871617    116.04607
   37600    54.329857   -15121.358    214.30028    103.72535    61.681198    477.49428    99.481557    99.871617    116.04722
   37700     54.05553   -15121.259    155.96878    20.892864   -7.5821635    454.59565    99.481557    99.871617    116.04838
   37800    54.261425   -15121.159    103.60875   -32.738301   -72.581632    416.14618    99.481557    99.871617    116.04954
   37900    55.511608   -15121.057    30.016061   -102.42654   -152.88554    345.36027    99.481557    99.871617    116.05069
   38000    55.816141   -15120.953   -31.700775    -165.3637   -208.02682    278.28819    99.481557    99.871617    116.05185
   38100     55.74072    -15120.85   -19.007235   -154.99098   -176.30731    274.27659    99.481557    99.871617      116.053
   38200     55.18739   -15120.746   -16.075614   -156.10657   -156.62273    264.50245    99.481557    99.871617    116.05416
[...]
   85200    92.936975   -15064.515   -86.760129   -250.47626   -262.83429    253.03017    99.481557    99.871617    116.59754
   85300    92.132702   -15064.412    -92.49713   -270.05959   -264.89492    257.46312    99.481557    99.871617     116.5987
   85400    94.189542   -15064.308   -137.57434   -321.89232   -292.77481    201.94411    99.481557    99.871617    116.59985
   85500    94.205271   -15064.204   -58.748266   -219.96664   -224.54132    268.26316    99.481557    99.871617    116.60101
   85600    93.606527   -15064.099    13.514187   -116.99464   -146.47415    304.01135    99.481557    99.871617    116.60216
   85700    96.619772   -15063.994    147.74558    53.727693    18.211861    371.29718    99.481557    99.871617    116.60332
   85800    95.382592    -15063.89    274.56635    194.37528    195.93493    433.38885    99.481557    99.871617    116.60448
   85900    97.316635   -15063.786    345.40934    281.40745    292.35382    462.46675    99.481557    99.871617    116.60563
   86000     96.76017   -15063.683    330.07007    307.13968    294.95911     388.1114    99.481557    99.871617    116.60679
   86100     96.38346   -15063.579    243.96584    238.06661    229.66719    264.16373    99.481557    99.871617    116.60794
   86200    96.683425   -15063.475     137.2445    120.48616    150.55133      140.696    99.481557    99.871617     116.6091
   86300    97.282291    -15063.37    57.204793    52.199132    70.702914    48.712334    99.481557    99.871617    116.61026
   86400    96.581278   -15063.264   -111.34328   -102.11584   -124.16637   -107.74762    99.481557    99.871617    116.61141
   86500    95.757831    -15063.16   -237.05351   -213.25532   -236.50843   -261.39678    99.481557    99.871617    116.61257
   86600    93.991494   -15063.054   -322.50626   -284.13615   -307.65791   -375.72471    99.481557    99.871617    116.61372
   86700    95.616438    -15062.95   -364.33158   -344.06262   -312.40874   -436.52337    99.481557    99.871617    116.61488
   86800    94.984247   -15062.846   -293.28411   -228.67072   -229.22437   -421.95725    99.481557    99.871617    116.61604
   86900    96.355863    -15062.74   -196.32021   -74.235169   -116.12397   -398.60149    99.481557    99.871617    116.61719
   87000    96.527555   -15062.635   -82.258849     57.00256    45.653409   -349.43252    99.481557    99.871617    116.61835
   87100    97.086944    -15062.53    37.401859    191.13325    214.65462   -293.58229    99.481557    99.871617    116.61951
   87200    95.335741   -15062.426    103.91285    297.75563    289.90326   -275.92035    99.481557    99.871617    116.62066
   87300    95.117768   -15062.324    119.08796    334.59556    309.93084   -287.26253    99.481557    99.871617    116.62182
   87400     96.31061   -15062.221    110.66501    329.86827    311.94274   -309.81599    99.481557    99.871617    116.62297
   87500    94.670949   -15062.118     16.72872    190.85286    237.87437   -378.54107    99.481557    99.871617    116.62413
   87600    96.278058   -15062.014    -125.5375    29.538701    62.413662   -468.56485    99.481557    99.871617    116.62529
   87700    94.637635   -15061.911   -229.22869   -77.078628   -81.035218   -529.57222    99.481557    99.871617    116.62644
   87800    94.885517   -15061.807   -329.19271   -189.91353   -212.19633   -585.46827    99.481557    99.871617     116.6276
   87900    94.508528   -15061.704   -413.56701   -316.36341   -298.69669   -625.64093    99.481557    99.871617    116.62875
   88000    93.289399   -15061.601   -361.02425   -283.57184   -246.03853   -553.46239    99.481557    99.871617    116.62991
   88100    95.768172   -15061.498   -347.56193   -251.59837   -260.71194   -530.37546    99.481557    99.871617    116.63107
   88200    96.333405   -15061.395   -238.91813   -127.78436   -149.57709   -439.39295    99.481557    99.871617    116.63222
   88300    97.724798   -15061.292   -105.62789   -1.7536295   -6.5831738   -308.54687    99.481557    99.871617    116.63338
   88400    96.640962    -15061.19    25.393613    124.60497    138.18767   -186.61181    99.481557    99.871617    116.63454
   88500    97.791904   -15061.089    159.03431    271.54463    273.09414   -67.535833    99.481557    99.871617    116.63569
   88600    97.965799   -15060.989    228.55934    327.59882    330.72392    27.355276    99.481557    99.871617    116.63685
   88700    97.997323   -15060.889    205.35515    277.62529    287.68672    50.753449    99.481557    99.871617      116.638
   88800    98.376276   -15060.791    146.54761    207.05274    184.38665    48.203433    99.481557    99.871617    116.63916
   88900    99.671946   -15060.691     68.75761     87.17992    95.043325    24.049586    99.481557    99.871617    116.64032
   89000    98.811303   -15060.593   -45.916183   -61.067153   -46.635304   -30.046093    99.481557    99.871617    116.64147
   89100    97.622125   -15060.494   -133.49486   -173.93845    -180.4388   -46.107335    99.481557    99.871617    116.64263
   89200     97.24321   -15060.399   -191.76357   -239.89884   -270.69961   -64.692259    99.481557    99.871617    116.64378
   89300    97.747749   -15060.302   -213.42974   -293.85062   -296.49891     -49.9397    99.481557    99.871617    116.64494
   89400    97.984064   -15060.207   -138.95946   -243.03578   -238.34708    64.504492    99.481557    99.871617     116.6461
   89500    97.529283   -15060.113   -55.511737   -180.34342   -177.19794    191.00615    99.481557    99.871617    116.64725
   89600    98.489876   -15060.019    73.394945   -54.203933   -48.292264    322.68103    99.481557    99.871617    116.64841
   89700    99.847375   -15059.926    227.31641    99.807677    103.03561    479.10596    99.481557    99.871617    116.64956
   89800    98.365463   -15059.834    340.74344     201.5356    213.72103    606.97371    99.481557    99.871617    116.65072
   89900    97.979144   -15059.745    371.32986    234.45703    238.61425    640.91829    99.481557    99.871617    116.65188
   90000    98.071875   -15059.655    403.96988    259.81167    262.09634    690.00162    99.481557    99.871617    116.65303
   90100    99.270878   -15059.567    349.40322    192.80194    195.73061     659.6771    99.481557    99.871617    116.65419
   90200    98.372799   -15059.477    276.72256    117.62682    90.562036    621.97883    99.481557    99.871617    116.65535
   90300     99.01819   -15059.388    130.00321   -47.811421    -45.58115    483.40221    99.481557    99.871617     116.6565
   90400    97.853772   -15059.298    9.7074811   -175.90934   -181.04774    386.07952    99.481557    99.871617    116.65766
   90500    96.948667   -15059.209   -62.831973   -234.72587   -261.91079    308.14074    99.481557    99.871617    116.65881
   90600    96.962693    -15059.12   -132.05592   -296.53646   -322.67629    223.04497    99.481557    99.871617    116.65997
   90700     97.58668    -15059.03   -106.70433   -269.39895   -271.28324    220.56921    99.481557    99.871617    116.66113
   90800    99.561956    -15058.94   -58.439536   -200.10707   -191.55252    216.34098    99.481557    99.871617    116.66228
   90900    99.759374    -15058.85    27.597171   -110.58499   -63.146457    256.52296    99.481557    99.871617    116.66344
   91000    98.134519    -15058.76    111.12136    12.023701    53.023077    268.31731    99.481557    99.871617    116.66459
   91100    101.19571    -15058.67     222.8089    179.24905    175.68107    313.49658    99.481557    99.871617    116.66575
   91200    100.53201   -15058.581    311.44198     281.6738    308.08462    344.56751    99.481557    99.871617    116.66691
   91300      100.438   -15058.493    319.59748    315.56419    325.46295    317.76531    99.481557    99.871617    116.66806
   91400    100.20823   -15058.404    248.04121    259.44442    249.55245    235.12675    99.481557    99.871617    116.66922
   91500    100.42373   -15058.316    140.46327    161.59582    137.58085    122.21315    99.481557    99.871617    116.67037
   91600    100.27955   -15058.227    23.559506    60.436955     20.64875   -10.407188    99.481557    99.871617    116.67153
   91700    98.976383   -15058.137   -98.546928   -86.325165   -98.320724    -110.9949    99.481557    99.871617    116.67269
   91800    99.147415   -15058.048   -190.62168   -181.38865   -178.13296   -212.34343    99.481557    99.871617    116.67384
   91900    98.242886   -15057.959   -273.65459   -246.28768    -274.1285   -300.54758    99.481557    99.871617      116.675
   92000    97.926775   -15057.871    -344.4283   -312.59264   -324.94059   -395.75166    99.481557    99.871617    116.67616
   92100    98.486048   -15057.782   -316.00475   -276.91669   -260.12679   -410.97076    99.481557    99.871617    116.67731
   92200    97.394229   -15057.694    -229.1305   -151.11394   -141.58406    -394.6935    99.481557    99.871617    116.67847
   92300     100.5573   -15057.604   -114.25897    6.4682003    9.3145356   -358.55964    99.481557    99.871617    116.67962
   92400    99.810045   -15057.517   0.68979349    153.50877    169.98452   -321.42391    99.481557    99.871617    116.68078
   92500    98.374024    -15057.43    46.183812    225.01259     234.4987   -320.95986    99.481557    99.871617    116.68194
   92600    97.352684   -15057.343    68.651199     259.1839    279.98987   -333.22018    99.481557    99.871617    116.68309
   92700    99.367795   -15057.257    77.556932    286.26949    292.10263   -345.70132    99.481557    99.871617    116.68425
   92800    99.626793    -15057.17    50.499379    257.38425    260.80167   -366.68779    99.481557    99.871617     116.6854
   92900    98.612768   -15057.084   -37.352438    148.56483    159.62204   -420.24418    99.481557    99.871617    116.68656
   93000    99.293641   -15056.997   -179.25998    -4.058293   -17.602225   -516.11942    99.481557    99.871617    116.68772
   93100    99.343845   -15056.911   -319.42777   -194.14167   -162.39024   -601.75141    99.481557    99.871617    116.68887
   93200    98.850966   -15056.824   -348.02738   -226.14845   -210.36829    -607.5654    99.481557    99.871617    116.69003
   93300    99.024103   -15056.738   -357.81935   -233.35514   -250.66268   -589.44024    99.481557    99.871617    116.69119
   93400    98.492237   -15056.652   -312.84868   -216.49721   -213.37141   -508.67743    99.481557    99.871617    116.69234
   93500    101.10874   -15056.567   -233.40822   -141.13185   -133.57435   -425.51844    99.481557    99.871617     116.6935
   93600    99.530744   -15056.482    -160.0198   -75.893014   -69.070527   -335.09586    99.481557    99.871617    116.69465
   93700     100.1836   -15056.398   -26.182297    67.984592    29.697915    -176.2294    99.481557    99.871617    116.69581
   93800    99.584987   -15056.315    104.52712    215.55025    150.10051   -52.069408    99.481557    99.871617    116.69697
   93900    100.07555   -15056.233    171.90894    255.53069     235.5423    24.653823    99.481557    99.871617    116.69812
   94000    101.90568   -15056.152     202.8004    234.86092    269.58005    103.96023    99.481557    99.871617    116.69928
   94100    102.92374   -15056.072    174.00636    200.75289     211.0252    110.24098    99.481557    99.871617    116.70043
   94200    102.16337   -15055.992    79.744596    102.02439    61.990718    75.218683    99.481557    99.871617    116.70159
   94300    102.65564   -15055.913    5.6024364    4.0074268    -29.81934    42.619222    99.481557    99.871617    116.70275
   94400    99.950437   -15055.834   -48.244854   -126.25908   -78.490851     60.01537    99.481557    99.871617     116.7039
   94500    101.39067   -15055.756   -110.72955   -200.27144   -181.83972    49.922516    99.481557    99.871617    116.70506
   94600    100.65183   -15055.679   -133.47908   -211.70769   -241.17366    52.444112    99.481557    99.871617    116.70621
   94700    101.33012   -15055.603   -114.86551   -216.95628   -221.59286     93.95262    99.481557    99.871617    116.70737
   94800    100.21897   -15055.528   -38.128556   -178.18898   -140.55374    204.35705    99.481557    99.871617    116.70853
   94900    101.93421   -15055.453    59.421406   -73.679507    -67.49546    319.43919    99.481557    99.871617    116.70968
   95000    102.35178    -15055.38    160.80041     42.46341    16.428415     423.5094    99.481557    99.871617    116.71084
   95100    99.887831   -15055.308    255.55151    124.87798    135.89865    505.87789    99.481557    99.871617      116.712
   95200    101.81933   -15055.237     319.3802    183.96017    199.30767    574.87276    99.481557    99.871617    116.71315
   95300    100.18526   -15055.167    322.17258      188.743    179.86851    597.90622    99.481557    99.871617    116.71431
   95400    103.69053   -15055.098    316.31518    185.81813    171.83912    591.28828    99.481557    99.871617    116.71546
   95500    100.78708   -15055.027    246.50376    92.905081    104.52623    542.07996    99.481557    99.871617    116.71662
   95600    102.31808   -15054.958    174.72901   -6.6098323     33.24532    497.55154    99.481557    99.871617    116.71778
   95700    100.30749   -15054.889     115.2002     -68.2009   -55.881862    469.68336    99.481557    99.871617    116.71893
   95800    101.17765    -15054.82    31.216849   -141.03781   -158.11197    392.80032    99.481557    99.871617    116.72009
   95900    99.689647   -15054.751   -40.944845    -247.3105   -205.04777    329.52374    99.481557    99.871617    116.72124
   96000    101.44262   -15054.682   -42.665899   -246.04894   -171.37746    289.42871    99.481557    99.871617     116.7224
   96100    101.53705   -15054.613   -43.815644   -203.50424   -204.67934    276.73665    99.481557    99.871617    116.72356
   96200    103.17329   -15054.544    23.383628   -90.903751   -130.65721    291.71184    99.481557    99.871617    116.72471
   96300    101.83001   -15054.475    94.080822   -4.1415041   -16.259143    302.64311    99.481557    99.871617    116.72587
   96400    102.03299   -15054.407    127.91302    60.227345    56.942109    266.56961    99.481557    99.871617    116.72703
   96500    103.84912   -15054.338    129.60707    112.93166    67.939752    207.94981    99.481557    99.871617    116.72818
   96600    104.18467   -15054.271    189.99991    220.11766    156.30855    193.57351    99.481557    99.871617    116.72934
   96700    103.61749   -15054.203    159.98403    199.44329    172.29076    108.21804    99.481557    99.871617    116.73049
   96800    104.19153   -15054.135    105.84922    153.53724    133.32571    30.684716    99.481557    99.871617    116.73165
   96900    104.24589   -15054.067    68.441274    133.18791    104.83256   -32.696658    99.481557    99.871617    116.73281
   97000    101.57403   -15053.999   -45.777489    28.624253   -15.028827   -150.92789    99.481557    99.871617    116.73396
   97100    102.48733   -15053.932   -112.69759   -57.645854   -45.638249   -234.80866    99.481557    99.871617    116.73512
   97200    102.16217   -15053.865   -201.21559    -136.5186   -137.65031   -329.47786    99.481557    99.871617    116.73627
   97300    102.23738   -15053.798   -243.82703   -157.26466   -173.81323   -400.40319    99.481557    99.871617    116.73743
   97400    101.32469   -15053.731   -232.37576   -162.51716   -131.28949   -403.32064    99.481557    99.871617    116.73859
   97500    102.66368   -15053.664   -191.32858   -113.94274    -59.84714   -400.19585    99.481557    99.871617    116.73974
   97600    102.06598   -15053.598    -166.4261   -61.453736   -30.525991   -407.29857    99.481557    99.871617     116.7409
   97700    102.20997   -15053.532    -113.5031    16.701582    31.569024   -388.77992    99.481557    99.871617    116.74205
   97800    100.69455   -15053.467   -60.332039    78.423602    91.222207   -350.64193    99.481557    99.871617    116.74321
   97900    102.06364   -15053.403    -2.016284    128.15337    173.56901   -307.77123    99.481557    99.871617    116.74437
   98000    101.87344   -15053.339   -5.8594366      128.036    188.83763   -334.45194    99.481557    99.871617    116.74552
   98100    102.90731   -15053.276   -47.077559    128.14836     114.5502   -383.93124    99.481557    99.871617    116.74668
   98200    100.55996   -15053.212   -80.806747     98.35403     80.45361   -421.22788    99.481557    99.871617    116.74784
   98300    101.33264   -15053.149    -157.1454   -11.681986    15.006786   -474.76099    99.481557    99.871617    116.74899
   98400    101.61076   -15053.086   -201.74141   -55.820111    -49.35405   -500.05006    99.481557    99.871617    116.75015
   98500    100.32302   -15053.023   -248.59726    -88.16181   -119.69614   -537.93382    99.481557    99.871617     116.7513
   98600    102.33383    -15052.96   -269.89199   -128.62878   -142.39344   -538.65374    99.481557    99.871617    116.75246
   98700    102.20942   -15052.898   -237.69473   -101.80956   -124.87897   -486.39566    99.481557    99.871617    116.75362
   98800    103.35331   -15052.836   -184.80529   -75.155314   -58.094335   -421.16624    99.481557    99.871617    116.75477
   98900    102.72978   -15052.775   -104.92673   0.28674545    5.4325128   -320.49944    99.481557    99.871617    116.75593
   99000    103.68173   -15052.715   -55.461966    46.625657    36.490735   -249.50229    99.481557    99.871617    116.75708
   99100    102.52468   -15052.656    42.641366    122.93815    120.29433   -115.30839    99.481557    99.871617    116.75824
   99200    104.58844   -15052.599    107.50156    166.22362    165.45747   -9.1763952    99.481557    99.871617     116.7594
   99300    104.68854   -15052.542    109.66152    142.43363    145.06074    41.490178    99.481557    99.871617    116.76055
   99400    104.69478   -15052.486    87.840531    104.85355    81.955822    76.712221    99.481557    99.871617    116.76171
   99500     105.3047   -15052.432    61.103375    58.147518    29.444243    95.718364    99.481557    99.871617    116.76286
   99600    102.78396   -15052.378    38.962414  -0.56070477   -12.798066    130.24601    99.481557    99.871617    116.76402
   99700    102.84027   -15052.325   -41.932458   -107.43671   -126.67735    108.31669    99.481557    99.871617    116.76518
   99800    102.77516   -15052.273   -37.348234   -110.42702   -158.68261    157.06492    99.481557    99.871617    116.76633
   99900    103.95269   -15052.222   -36.383273   -144.24674   -163.02518     198.1221    99.481557    99.871617    116.76749
  100000    105.19286   -15052.171    -17.51165   -137.96694   -149.86924    235.30124    99.481557    99.871617    116.76865
Loop time of 42.7774 on 28 procs for 100000 steps with 5538 atoms

Performance: 201.976 ns/day, 0.119 hours/ns, 2337.682 timesteps/s
99.9% CPU use with 28 MPI tasks x 1 OpenMP threads

MPI task timing breakdown:
Section |  min time  |  avg time  |  max time  |%varavg| %total
---------------------------------------------------------------
Pair    | 16.252     | 29.709     | 37.472     | 136.9 | 69.45
Neigh   | 0.054717   | 0.35066    | 0.52106    |  27.9 |  0.82
Comm    | 2.0277     | 9.582      | 22.668     | 244.1 | 22.40
Output  | 0.45846    | 0.49534    | 0.50157    |   1.2 |  1.16
Modify  | 1.3449     | 2.2043     | 2.8383     |  34.4 |  5.15
Other   |            | 0.4365     |            |       |  1.02

Nlocal:    197.786 ave 273 max 62 min
Histogram: 8 0 0 0 0 0 0 1 8 11
Nghost:    458.107 ave 618 max 200 min
Histogram: 8 0 0 0 0 0 0 5 9 6
Neighs:    4622.46 ave 6785 max 697 min
Histogram: 4 4 0 0 0 0 0 5 5 10
FullNghs:  9248 ave 12978 max 2248 min
Histogram: 8 0 0 0 0 0 0 0 9 11

Total # of neighbors = 258944
Ave neighs/atom = 46.7577
Neighbor list builds = 2093
Dangerous builds = 0

Total wall time: 0:00:50
