ITEM: TIMESTEP
10000
ITEM: NUMBER OF ATOMS
5538
ITEM: BOX BOUNDS pp pp pp
0 100
0 100
0 100
ITEM: ATOMS id type x y z 
2 1 49.4997 35.3237 4.62963 
5 1 49.2277 34.2097 7.56008 
11 1 42.4024 36.2181 6.31903 
1 1 44.6275 36.0037 5.29086 
3 1 47.7944 35.544 6.35089 
15 1 45.7882 36.4959 7.23694 
45 1 31.956 47.1721 6.74525 
6 1 38.5803 37.0021 6.48082 
10 1 40.4038 36.3322 7.68156 
14 1 43.6395 36.9344 8.0547 
19 1 47.5671 35.6567 8.71841 
7 1 38.1206 39.115 7.29388 
8 1 41.6414 37.6973 8.99286 
18 1 46.1106 37.7717 9.26798 
25 1 36.4344 40.2825 8.39691 
29 1 40.0447 39.383 8.58836 
13 1 45.3979 40.0158 9.6661 
47 1 32.6028 43.4785 8.41637 
23 1 36.5623 43.69 9.6009 
38 1 46.9786 43.318 9.41674 
44 1 48.9915 41.9248 9.82719 
50 1 32.911 45.7221 8.27429 
63 1 45.4472 44.9391 8.35905 
39 1 47.7414 45.0572 7.97285 
56 1 40.3846 48.2555 9.03703 
62 1 41.8476 46.3026 9.61795 
60 1 43.5757 46.5287 7.95603 
66 1 45.5538 47.1192 9.19743 
46 1 32.4994 49.3586 7.59228 
71 1 32.929 48.9749 9.81124 
20 1 49.9361 35.4803 12.5755 
61 1 42.7267 48.5178 8.92052 
16 1 47.5866 36.651 10.9699 
22 1 48.9513 34.5903 10.5893 
12 1 43.7909 38.2427 10.1941 
28 1 37.2319 41.388 10.1337 
32 1 39.4667 40.8202 10.3434 
9 1 41.8911 39.8178 10.2713 
33 1 43.9687 40.3685 11.4327 
17 1 47.0947 39.1951 11.063 
41 1 49.3782 39.4548 10.4067 
26 1 38.4998 42.4775 11.8987 
30 1 41.283 42.1394 11.1535 
36 1 43.4317 42.664 11.7031 
40 1 46.7862 41.6175 10.9209 
24 1 34.3154 44.4394 9.77484 
51 1 35.8471 44.2482 11.7633 
27 1 38.2278 44.6032 10.9037 
31 1 40.7698 44.3137 10.374 
59 1 42.9375 45.0519 11.4648 
35 1 45.1109 44.2496 10.736 
67 1 48.8253 44.1922 10.5189 
48 1 33.8212 46.7855 10.0995 
54 1 35.3603 46.5433 12.1205 
52 1 37.5296 47.4754 11.6597 
58 1 39.4641 46.6304 10.6177 
75 1 43.6867 47.3729 10.9211 
64 1 45.783 46.3152 11.3246 
76 1 47.6029 48.0731 11.6216 
70 1 47.7061 46.3101 9.84523 
68 1 49.8113 47.3588 10.6152 
49 1 34.628 48.794 11.352 
53 1 36.8667 49.7134 10.8721 
1500 1 44.1109 49.9293 10.5593 
65 1 46.3442 49.2863 9.88144 
69 1 49.8303 49.1566 12.2394 
143 1 46.8237 44.217 14.1648 
137 1 43.148 49.2586 12.7503 
145 1 47.7742 49.0435 13.7973 
98 1 47.9642 36.4548 13.4925 
21 1 49.9143 36.9963 10.6896 
89 1 43.9693 38.2215 12.6039 
93 1 46.2349 37.8531 12.7988 
108 1 38.7559 40.9891 13.8515 
37 1 45.7687 40.3603 12.8377 
100 1 34.464 43.6503 13.5691 
107 1 40.4271 42.839 13.1803 
34 1 45.7042 42.8661 12.6738 
103 1 37.4977 44.1584 13.2974 
55 1 40.1464 45.1276 12.5104 
138 1 42.1268 45.8332 13.5809 
111 1 43.8263 44.0591 13.5932 
109 1 42.0199 38.6023 14.0413 
119 1 48.7321 44.9381 12.8247 
43 1 49.9875 45.553 8.79444 
134 1 38.3501 46.267 13.4436 
142 1 44.3967 47.0968 13.2812 
146 1 46.929 46.5515 13.5057 
141 1 45.5839 49.2145 12.425 
129 1 37.1383 48.4595 13.7569 
133 1 40.7378 49.1346 13.5234 
78 1 47.502 31.3142 16.4602 
80 1 49.4908 32.461 16.1583 
87 1 41.0557 32.9875 14.876 
91 1 43.7801 33.7102 16.6793 
94 1 44.7114 34.6933 14.7439 
79 1 45.8924 32.8138 15.8457 
95 1 47.2164 34.8136 15.2491 
83 1 37.937 36.761 15.5838 
84 1 41.1942 35.9997 16.368 
92 1 45.8954 36.8243 14.9035 
96 1 49.1187 36.3167 15.6149 
105 1 38.8034 39.0328 15.2683 
85 1 40.8584 38.3999 16.1094 
113 1 44.168 37.9401 16.1868 
117 1 46.5671 39.1764 14.9314 
97 1 48.8219 38.4011 14.6927 
104 1 36.9631 40.6304 15.6609 
112 1 42.0094 40.3615 15.7599 
189 1 45.0939 40.2575 16.8331 
414 1 48.8071 48.44 28.4756 
193 1 47.5847 40.4103 16.908 
120 1 48.5683 40.8094 14.7366 
99 1 35.1105 42.0116 15.3994 
102 1 37.9964 42.762 15.3162 
106 1 40.2589 41.9203 15.3966 
110 1 43.6495 41.9781 15.0602 
114 1 46.2284 41.7546 14.972 
118 1 48.8935 43.1726 14.5623 
123 1 34.0878 45.3364 15.3094 
127 1 36.1965 44.2921 15.3127 
131 1 39.5363 44.5307 14.888 
135 1 41.8428 43.7511 14.9994 
115 1 45.091 43.9391 15.6516 
219 1 48.1037 44.9992 16.3208 
126 1 32.1629 46.717 14.9022 
124 1 34.2436 47.6876 15.4632 
128 1 37.922 46.927 15.6919 
132 1 40.3019 46.9439 14.8709 
136 1 42.5684 47.8891 14.8045 
139 1 43.9752 45.9804 15.3126 
144 1 49.0244 46.9605 14.8666 
249 1 49.9928 40.3496 23.3079 
361 1 42.054 49.014 27.3062 
149 1 39.1068 49.2552 15.2188 
353 1 37.0967 49.1601 27.7273 
140 1 45.771 48.3479 14.8465 
220 1 49.1992 48.1344 16.8521 
154 1 47.4621 32.4213 18.5797 
77 1 41.3723 33.7361 17.0077 
167 1 45.9137 34.0678 17.8706 
156 1 49.1162 33.9111 17.9805 
82 1 39.1713 35.9958 17.4126 
86 1 40.7941 35.1276 19.0191 
163 1 42.9251 35.4166 18.149 
171 1 47.6044 35.8961 17.5131 
101 1 37.2794 38.5722 17.0234 
158 1 39.323 38.196 18.1103 
160 1 42.4641 37.7914 17.7387 
164 1 44.62 38.5425 18.6534 
168 1 46.4929 37.9845 17.1224 
172 1 48.8644 38.2392 17.0906 
177 1 37.7918 40.8532 17.8397 
181 1 39.9138 40.3752 17.1564 
185 1 42.9402 40.3637 17.9728 
169 1 47.0338 39.4316 19.0346 
173 1 49.4342 39.6532 19.1345 
175 1 35.7922 43.1823 17.4934 
178 1 38.2569 43.4981 17.4575 
182 1 40.5778 43.5147 17.1067 
184 1 39.7683 42.048 18.986 
188 1 42.3271 42.7131 18.8125 
186 1 44.1773 42.4638 17.3333 
192 1 45.6287 41.4658 18.9722 
190 1 46.6777 42.919 17.2099 
194 1 48.9836 42.6381 16.8064 
196 1 48.162 41.7686 18.9384 
199 1 34.7998 45.4111 17.6304 
203 1 37.0349 45.5064 17.2234 
207 1 39.5516 45.7913 17.0363 
183 1 41.2014 44.9746 18.9021 
211 1 42.6177 45.0776 17.0084 
187 1 44.23 44.5317 18.7162 
191 1 46.7783 44.5668 18.9529 
195 1 49.1021 44.1921 18.5848 
121 1 31.1601 47.716 16.9199 
197 1 33.0002 47.1642 18.3352 
200 1 35.206 47.8457 17.5679 
206 1 37.1665 47.0367 19.0509 
210 1 40.167 47.1194 19.0578 
208 1 41.6225 47.2845 16.9285 
214 1 43.0218 46.7474 18.9661 
212 1 44.089 47.7215 16.7502 
218 1 45.4829 47.2994 18.8041 
215 1 45.718 45.7075 17.0156 
222 1 47.9006 46.4913 18.1892 
369 1 47.0116 49.1946 26.7517 
204 1 38.699 48.1441 17.4929 
205 1 38.4845 49.7504 19.1146 
209 1 41.4995 49.005 18.7778 
213 1 43.9066 49.3493 18.8683 
216 1 46.7251 48.1445 16.8593 
217 1 46.5191 49.4651 19.1368 
221 1 49.5021 49.1872 18.906 
155 1 47.3005 34.6588 19.8038 
153 1 44.7756 35.1798 19.724 
170 1 46.3025 36.9742 19.4893 
157 1 49.7243 35.1536 19.9284 
162 1 40.9404 37.5145 19.6359 
234 1 39.7742 38.6272 21.3538 
166 1 43.1888 37.0575 19.9303 
236 1 42.2835 38.8707 21.3336 
240 1 44.8526 38.252 21.1591 
244 1 47.3083 38.382 21.3097 
174 1 48.6571 37.3708 19.3721 
248 1 49.8074 38.6051 21.3628 
159 1 38.3502 39.5743 19.7281 
253 1 37.3812 40.916 21.4831 
161 1 40.9544 39.8825 19.2382 
257 1 39.8199 41.0897 21.2849 
261 1 42.1734 41.3291 20.7926 
165 1 44.0172 40.1673 20.1135 
265 1 46.1669 40.5558 21.132 
269 1 48.6036 40.7889 21.2364 
180 1 37.1883 42.3975 19.5206 
254 1 38.6972 43.4166 21.0289 
258 1 41.1156 43.4587 20.9057 
262 1 44.1728 42.7029 20.4435 
266 1 46.7079 42.9186 20.6847 
270 1 49.2036 43.0843 20.8975 
176 1 36.1577 44.5712 19.515 
179 1 38.6199 45.132 19.1857 
279 1 37.4564 45.7139 21.3415 
283 1 40.0506 45.6582 21.1108 
287 1 43.0011 45.0962 20.7762 
295 1 48.4734 45.5063 20.5668 
202 1 34.9232 46.7768 19.804 
276 1 36.3801 47.8748 21.4431 
280 1 38.8799 47.9049 21.0044 
284 1 41.5698 47.6509 20.9539 
291 1 45.329 45.7374 20.6144 
288 1 44.21 47.8197 20.8876 
292 1 47.2333 47.6129 20.5537 
296 1 49.6604 47.7925 20.9778 
198 1 33.828 49.004 19.7871 
201 1 36.1834 49.2209 19.5324 
116 1 44.1386 39.6466 14.5413 
301 1 40.2549 49.9339 20.9875 
81 1 49.5853 34.2228 14.6372 
304 1 48.3185 49.8691 20.7973 
230 1 47.5755 33.9259 22.0403 
302 1 42.685 49.9606 20.989 
239 1 43.3921 35.7759 21.8241 
229 1 44.6907 35.5788 23.8705 
243 1 45.9268 35.9275 21.8107 
231 1 47.18 35.472 23.8448 
247 1 48.3585 36.2295 21.5976 
233 1 49.648 35.5564 23.6169 
238 1 40.9339 38.1921 23.4 
242 1 43.4573 37.8502 23.2276 
246 1 46.1234 37.8078 23.3886 
250 1 48.6268 37.8809 23.4405 
235 1 39.0138 40.0263 23.3117 
237 1 41.6289 40.4471 23.1238 
241 1 45.0466 39.8331 23.035 
245 1 47.4549 40.0734 23.267 
365 1 44.5903 49.1088 27.32 
251 1 36.1359 43.1123 21.6869 
256 1 37.9155 42.4659 23.2713 
260 1 40.3214 42.5769 23.1195 
264 1 42.9023 42.7677 22.7384 
268 1 45.2716 42.258 22.7341 
272 1 47.8779 42.5141 22.9681 
275 1 34.9967 45.4698 21.7739 
252 1 36.597 44.6578 23.5227 
255 1 39.0636 44.732 23.1963 
259 1 41.5363 44.795 22.8856 
263 1 44.5036 44.7046 22.862 
267 1 46.8466 44.762 22.3052 
271 1 49.5353 44.6604 22.7148 
273 1 33.9819 47.7475 21.9482 
278 1 35.3582 46.9231 23.6991 
282 1 37.8523 47.0565 23.4277 
286 1 40.3997 47.0673 23.092 
290 1 42.9741 46.8068 22.9027 
294 1 45.5142 47.0653 22.8859 
298 1 48.0939 46.8273 22.6712 
274 1 34.2006 49.2711 23.956 
277 1 36.6219 49.1627 23.5862 
281 1 39.1018 49.2418 23.1784 
285 1 41.7516 49.1511 23.0803 
289 1 44.2513 49.1916 22.9863 
293 1 46.7261 49.1282 22.4124 
297 1 49.3143 49.0307 23.026 
306 1 47.7944 34.1772 25.7641 
315 1 43.3022 36.6705 25.5208 
319 1 45.7898 36.9048 25.6313 
323 1 48.3948 36.6081 25.5465 
310 1 39.9436 39.1954 25.4204 
312 1 42.3663 39.056 25.1669 
316 1 44.7924 38.9983 25.3016 
320 1 47.2239 38.8347 25.4315 
324 1 49.7132 38.8725 25.2847 
329 1 38.7345 41.4559 25.3963 
337 1 43.5624 41.233 24.5092 
341 1 46.0251 41.1536 25.0768 
345 1 48.5277 41.1313 25.1418 
333 1 41.1376 41.5138 25.2093 
338 1 44.9309 43.4442 24.9714 
342 1 47.3431 43.4053 25.0234 
346 1 49.8065 43.2402 24.6339 
327 1 37.5816 43.5849 25.5396 
330 1 39.9897 43.6534 25.3379 
334 1 42.4717 43.577 24.9797 
363 1 43.6587 45.6957 24.9988 
367 1 46.1198 45.6805 24.8146 
371 1 48.5555 45.5965 24.7987 
351 1 36.3741 45.8387 25.6687 
355 1 38.7481 45.8636 25.3896 
359 1 41.2186 45.8413 25.0852 
349 1 34.9646 47.9199 25.8594 
352 1 37.405 48.1148 25.5775 
356 1 39.8971 48.009 25.3217 
360 1 42.4053 47.9831 25.0898 
364 1 44.819 47.9026 25.1343 
368 1 47.3999 47.9949 24.5665 
305 1 44.5422 36.0199 27.5217 
307 1 46.9942 35.7385 27.5102 
309 1 49.5398 35.7935 27.4878 
314 1 41.2656 38.8367 27.5162 
318 1 43.6359 38.3071 27.4423 
322 1 46.1252 38.216 27.6007 
326 1 48.5944 38.2185 27.467 
311 1 39.4085 40.4824 27.4996 
313 1 42.7135 40.6913 26.9112 
317 1 44.9703 40.3382 27.3906 
321 1 47.3736 40.4076 27.2086 
325 1 49.8116 40.5099 27.2958 
332 1 38.4134 42.6411 27.6581 
336 1 40.932 42.3857 27.4455 
340 1 43.4496 42.907 27.1122 
344 1 45.8727 42.5813 27.0582 
348 1 48.4345 42.6686 27.2601 
328 1 37.0888 44.6932 27.7514 
331 1 39.5549 44.6629 27.5417 
335 1 41.9299 44.7624 27.2205 
339 1 44.7888 44.8352 27.0804 
343 1 47.3136 44.7768 26.9957 
347 1 49.779 44.7727 26.7409 
354 1 35.8758 46.8949 27.9152 
358 1 38.3367 46.8592 27.6102 
362 1 40.7355 46.9544 27.3224 
366 1 43.3083 46.8066 27.1409 
370 1 45.8956 46.9478 27.0538 
374 1 48.339 46.9926 26.6436 
357 1 39.526 49.18 27.4734 
350 1 34.7683 49.2711 27.8621 
122 1 30.611 49.9625 16.6881 
90 1 41.617 35.0772 14.2894 
130 1 35.9412 46.4732 14.3196 
299 1 35.2083 49.9796 21.7184 
88 1 43.3984 36.6498 14.3356 
381 1 47.4697 34.5523 29.6001 
382 1 49.9182 34.5318 29.6318 
385 1 43.5127 36.9384 29.5828 
387 1 45.8945 36.7361 29.5726 
389 1 48.4207 36.8172 29.5003 
384 1 42.5151 39.2356 29.6446 
388 1 47.4008 39.1895 29.5691 
390 1 49.9178 39.0294 29.479 
383 1 40.1317 39.276 29.5929 
386 1 44.9278 39.2678 29.6476 
396 1 43.6994 41.4121 29.2068 
392 1 38.9595 41.417 29.806 
394 1 41.3499 41.4695 29.7182 
395 1 42.6553 43.6026 29.3002 
398 1 46.2596 41.4768 29.3339 
400 1 48.6315 41.3851 29.4328 
601 1 48.212 48.8982 41.0484 
391 1 37.7881 43.5937 29.8126 
393 1 40.2999 43.6545 29.6755 
397 1 45.0993 43.5466 29.3068 
399 1 47.7094 43.7209 29.4336 
411 1 46.2554 45.6152 29.1184 
403 1 36.5361 45.7506 29.9287 
405 1 38.9544 45.7314 29.69 
407 1 41.4455 45.9187 29.4659 
409 1 43.897 45.7786 29.2693 
412 1 47.6212 47.2576 30.1446 
402 1 35.1866 47.9833 29.943 
404 1 37.666 47.9466 29.68 
406 1 40.1465 47.9987 29.4764 
408 1 42.7852 48.0155 29.3722 
410 1 45.2835 47.8951 29.3036 
419 1 46.8523 49.7675 29.7847 
421 1 44.5544 36.0349 31.6884 
422 1 47.0763 35.878 31.6297 
423 1 49.6831 35.8917 31.6707 
426 1 41.2535 38.0012 32.5667 
428 1 43.5647 38.2173 31.6494 
430 1 46.2547 38.1907 31.5333 
432 1 48.5886 38.1135 31.4325 
424 1 39.6525 40.0581 31.9162 
425 1 42.0545 40.2402 31.8421 
427 1 44.7454 40.4156 31.9079 
429 1 47.2146 40.654 31.5637 
431 1 49.725 40.502 31.4919 
435 1 38.3402 42.3513 31.9572 
437 1 40.757 42.3581 31.8598 
439 1 43.2147 42.3866 31.4538 
441 1 45.6418 42.5602 31.4391 
490 1 44.6458 43.3632 33.5037 
443 1 48.57 42.75 32.0782 
433 1 37.0485 44.5725 32.0245 
434 1 39.4905 44.5938 31.8976 
436 1 41.9693 44.7627 31.4444 
438 1 44.4493 44.6618 31.4262 
519 1 45.6833 45.6095 33.5322 
440 1 47.0183 44.4578 31.7161 
446 1 36.2094 46.9377 32.0848 
448 1 38.5811 47.0283 31.7547 
450 1 40.9674 47.0805 31.5638 
452 1 43.432 47.0202 31.5124 
454 1 45.8179 46.5638 31.3744 
456 1 48.5869 46.3627 32.1432 
444 1 35.1383 49.0963 32.1065 
445 1 37.5425 49.1975 31.8463 
447 1 39.9654 49.2255 31.6165 
449 1 42.4914 49.2755 31.5545 
512 1 42.1045 48.0283 33.5981 
451 1 45.0258 49.0503 31.6001 
520 1 46.8049 47.8337 33.0734 
453 1 48.5736 48.7611 31.4496 
532 1 48.1585 49.8591 33.4466 
642 1 49.8137 48.6871 42.8266 
458 1 47.2952 34.7343 33.7575 
460 1 49.7164 34.6327 33.7646 
467 1 43.2535 36.8453 33.7364 
457 1 44.6075 36.1526 35.8102 
471 1 45.776 36.9383 33.6695 
459 1 47.1797 36.2058 35.7195 
475 1 48.4227 36.9216 33.6015 
461 1 49.8177 36.225 35.5812 
462 1 39.5086 38.9189 34.1445 
470 1 43.0854 38.0931 35.8433 
468 1 44.3671 39.0323 33.9334 
474 1 45.7946 38.4286 35.8977 
472 1 46.9145 39.1671 33.5537 
476 1 49.5701 39.0674 33.4784 
478 1 48.3036 38.5997 35.6399 
481 1 38.5396 41.0852 34.04 
464 1 41.8396 39.506 34.3212 
493 1 45.8979 41.2365 34.2233 
497 1 48.349 41.1617 33.7515 
479 1 37.4544 43.2288 34.0599 
485 1 40.7683 41.6543 34.2731 
489 1 43.2938 41.3148 33.7404 
492 1 43.2855 42.7113 35.7064 
494 1 47.0726 43.4673 34.1618 
498 1 49.4997 43.2978 34.294 
503 1 36.0162 45.4379 34.1135 
482 1 39.6811 43.8688 34.4592 
486 1 42.1556 43.4987 33.5501 
515 1 43.2755 45.7083 33.5332 
487 1 41.898 44.7433 35.6721 
491 1 44.4749 44.8273 35.4941 
501 1 34.8784 47.7347 34.1829 
507 1 38.352 45.8332 33.7936 
510 1 38.477 47.0172 35.9099 
511 1 40.8573 45.7932 33.5974 
514 1 40.9393 47.0855 35.7687 
518 1 43.3516 46.9605 35.7257 
522 1 45.9713 47.151 35.7096 
523 1 47.8557 45.7964 34.4228 
504 1 37.2237 48.0624 34.007 
508 1 39.6542 48.0102 33.6678 
509 1 39.6569 49.3009 35.8005 
513 1 42.1132 49.3555 35.6799 
516 1 44.4857 47.9718 33.7417 
517 1 44.5254 49.2947 35.8491 
521 1 46.9579 49.6039 35.745 
526 1 48.3932 47.9492 35.0424 
534 1 47.5646 34.9413 37.8224 
547 1 46.0628 36.8122 37.8623 
466 1 40.5991 38.2717 36.2127 
543 1 43.6225 37.0492 38.039 
548 1 47.285 38.9361 38.1069 
551 1 48.7021 37.0225 37.6716 
463 1 39.4734 40.4263 36.2218 
540 1 42.226 39.1068 37.9078 
465 1 41.9163 40.8794 36.3032 
469 1 44.3248 40.4284 36.0545 
544 1 44.8376 39.1449 38.1134 
473 1 46.8976 40.6316 36.3972 
477 1 49.2741 40.7705 35.9923 
552 1 49.8293 39.2312 37.6808 
484 1 38.0442 42.3473 36.233 
488 1 40.3973 42.8806 36.5256 
562 1 42.4499 43.3306 37.7878 
496 1 45.5782 42.7078 36.4282 
500 1 48.2334 42.8556 36.4349 
579 1 36.1944 45.4597 38.0465 
480 1 37.7551 44.7786 36.0768 
483 1 39.9757 45.3307 37.3704 
595 1 44.939 45.5128 37.6657 
495 1 46.8643 44.8557 36.4554 
506 1 36.1677 46.782 36.0934 
591 1 42.6137 45.6959 37.7025 
502 1 34.9062 48.8188 36.4563 
505 1 37.2928 49.1672 36.1949 
580 1 37.06 47.9591 38.2146 
584 1 39.5121 47.9258 37.8364 
588 1 42.1209 48.0437 37.6989 
592 1 44.6951 47.8588 37.8639 
533 1 44.7323 36.6325 40.1144 
535 1 47.2641 36.4886 39.8764 
537 1 49.6728 36.4484 39.7867 
542 1 40.7082 38.4292 40.6118 
546 1 43.2465 38.6849 40.121 
550 1 45.8603 38.697 40.1641 
554 1 48.3835 38.5711 40.324 
538 1 39.8572 39.2481 38.355 
539 1 39.7519 40.6352 40.643 
541 1 42.2338 40.995 40.5486 
565 1 43.5512 41.1937 38.3989 
573 1 48.506 41.1271 38.5119 
557 1 38.635 41.456 38.4307 
560 1 38.3141 42.7985 40.7249 
561 1 41.0349 41.3482 38.5336 
566 1 44.6578 43.3615 38.623 
569 1 46.0652 41.2305 38.6103 
574 1 49.5665 43.3618 38.4848 
576 1 48.1673 42.8644 40.4983 
555 1 37.9731 43.853 38.3907 
558 1 40.1874 43.5007 39.1185 
563 1 42.1347 44.6217 39.8403 
570 1 47.0902 43.4673 38.4982 
577 1 34.7463 47.4098 38.6655 
583 1 38.2458 46.147 39.1517 
587 1 40.7809 46.6786 39.3565 
594 1 43.2563 46.7771 39.6887 
603 1 35.5418 49.8385 38.6766 
589 1 41.6265 49.0498 39.845 
593 1 43.9803 49.0207 39.8589 
596 1 46.3457 48.5401 39.6626 
608 1 48.414 49.7376 38.7557 
617 1 48.0159 37.6171 42.3461 
611 1 39.9324 39.4682 42.8164 
612 1 42.2838 39.283 42.2391 
545 1 44.6577 40.8767 40.7146 
549 1 47.2081 40.6373 40.9659 
553 1 49.7498 40.733 40.752 
620 1 38.579 41.4467 42.7739 
564 1 40.9586 42.824 41.2322 
624 1 43.3446 41.464 42.7872 
568 1 43.634 43.2269 41.0211 
572 1 45.9759 42.7517 41.724 
600 1 49.9881 47.9041 38.7915 
556 1 37.6837 45.0317 41.1019 
559 1 40.0648 45.1232 41.1434 
567 1 45.0085 45.1215 41.9448 
571 1 47.3749 44.8321 41.7344 
575 1 49.6968 44.5229 41.1359 
582 1 36.4501 47.2794 40.702 
597 1 45.2427 49.5308 41.8815 
586 1 38.9928 47.3311 41.1554 
590 1 41.5258 47.2916 41.5869 
598 1 44.0347 47.4108 41.8352 
602 1 46.5372 47.3172 41.8381 
3387 1 49.6679 47.013 40.9951 
413 1 48.7688 45.8755 28.6867 
578 1 35.3463 49.42 40.9928 
581 1 37.7972 49.5411 40.7344 
585 1 40.0819 49.4816 41.5921 
646 1 42.6227 49.7211 41.9751 
650 1 47.0656 35.7905 45.3046 
609 1 47.7883 35.3782 43.0078 
651 1 49.3505 36.6305 44.3845 
654 1 41.3485 38.3935 44.3764 
613 1 43.3213 36.9579 43.9132 
615 1 45.8183 36.9849 43.3457 
652 1 39.837 40.2881 45.3496 
653 1 42.4329 40.567 44.8495 
614 1 44.3332 39.1537 43.5245 
616 1 46.8048 39.3442 43.421 
618 1 49.2491 39.1863 43.7819 
663 1 38.4136 42.4374 45.2047 
622 1 40.8818 41.6313 43.3486 
626 1 45.5535 41.3846 43.7978 
628 1 48.0147 41.4773 43.4896 
661 1 37.0888 44.7084 45.166 
662 1 39.5167 44.7747 45.351 
621 1 39.7054 43.7455 43.2294 
623 1 42.2732 43.773 43.1315 
625 1 44.5164 43.5329 43.7723 
627 1 46.9239 43.6886 43.8286 
629 1 49.2131 43.7951 43.2835 
674 1 35.6332 46.8248 45.1227 
676 1 38.149 46.9657 45.3704 
633 1 38.5473 45.9012 43.166 
635 1 41.0701 45.8084 43.4325 
637 1 43.6159 45.9015 43.804 
639 1 46.0778 46.0964 44.0667 
641 1 48.5526 46.3634 43.1361 
896 1 44.6038 47.8707 56.6107 
672 1 34.6135 49.1053 45.1085 
673 1 36.9344 49.0777 45.4221 
632 1 37.4492 48.1402 43.0399 
634 1 39.9217 47.988 43.6053 
636 1 42.3606 48.0926 43.7743 
638 1 44.8096 48.3213 43.9906 
640 1 47.3448 48.4783 43.8782 
683 1 49.2977 49.1999 45.2792 
686 1 47.3591 34.6398 47.5318 
649 1 44.695 35.9948 45.5675 
695 1 43.6564 36.8254 47.6838 
699 1 46.1319 36.7593 47.5084 
688 1 49.2914 35.2358 46.2644 
656 1 43.1709 38.3353 45.8883 
658 1 45.5287 38.2718 45.4949 
660 1 47.874 38.0239 45.5796 
703 1 48.5495 36.9918 47.6374 
690 1 40.0727 39.2466 47.6435 
655 1 44.5748 40.4488 45.8007 
657 1 47.0989 40.3772 45.7785 
659 1 49.4674 39.7554 46.0125 
709 1 38.7355 41.3941 47.426 
665 1 40.8468 42.4846 45.6235 
713 1 41.2056 41.32 47.7511 
667 1 43.316 42.6942 45.779 
669 1 45.7397 42.6074 45.9063 
671 1 48.1373 42.5653 45.6939 
707 1 37.414 43.5066 47.3738 
710 1 39.8458 43.5758 47.5295 
664 1 42.0658 44.771 45.5709 
666 1 44.7121 45.002 45.794 
668 1 47.1529 44.8185 46.0719 
731 1 36.0424 45.6361 47.3015 
735 1 38.4989 45.7172 47.4719 
678 1 40.7758 46.9894 45.7017 
739 1 40.955 45.6744 47.8752 
680 1 43.3426 47.2462 45.8827 
684 1 48.0165 46.9058 45.5257 
752 1 49.8557 47.2445 46.936 
729 1 34.6729 47.7746 47.2566 
732 1 37.1297 47.7946 47.5426 
675 1 39.3485 49.1645 45.6125 
736 1 39.593 47.8702 47.7395 
677 1 41.8202 49.3321 45.8565 
679 1 44.2194 49.7335 45.7993 
682 1 46.1544 48.3915 45.9995 
685 1 44.8255 35.9129 49.6163 
687 1 47.3804 35.7713 49.7097 
689 1 49.792 35.9812 49.5118 
694 1 40.7435 38.2317 49.8666 
698 1 43.2294 37.837 49.9708 
692 1 42.5028 39.0935 48.0084 
696 1 44.9076 38.9304 47.7669 
702 1 45.8761 38.0094 49.8676 
706 1 48.3606 37.9825 49.9828 
892 1 42.1523 48.0692 56.8702 
691 1 39.3585 40.3717 49.7456 
693 1 41.9043 40.3928 49.9898 
697 1 44.4394 40.2058 49.8526 
700 1 47.3715 39.0581 47.8947 
701 1 46.9966 40.2404 49.9879 
705 1 49.5537 40.3528 50.0587 
725 1 48.7206 41.1927 47.7986 
712 1 38.0563 42.444 49.6471 
716 1 40.571 42.5361 49.7667 
720 1 43.1999 42.5491 50.0558 
717 1 43.6326 41.2492 47.8132 
721 1 46.0919 41.1937 47.8798 
724 1 45.7321 42.4373 49.951 
722 1 47.3264 43.2937 47.9632 
728 1 48.3114 42.4789 49.9798 
708 1 36.7253 44.6561 49.5106 
711 1 39.3077 44.6065 49.7016 
714 1 42.2372 43.4997 47.8648 
715 1 41.8099 44.7101 50.0319 
718 1 44.7369 43.4442 47.9624 
719 1 44.3698 44.7792 50.0748 
723 1 46.9353 44.6269 50.0449 
751 1 48.558 45.4253 48.1451 
734 1 35.4306 46.8469 49.5098 
738 1 37.9805 46.8569 49.7054 
742 1 40.512 46.8691 49.9556 
746 1 43.0681 46.8463 49.8607 
743 1 43.4102 45.6333 47.7693 
744 1 44.7654 47.6849 47.8965 
747 1 45.9344 45.5674 47.9972 
750 1 45.681 46.9744 49.9931 
748 1 47.4147 47.65 47.943 
730 1 34.4916 49.1996 49.5458 
733 1 36.8649 49.0964 49.6298 
737 1 39.2868 49.0536 49.8148 
740 1 42.0433 47.8956 47.958 
745 1 44.2841 49.0204 49.9055 
749 1 47.2198 49.1142 50.0502 
760 1 49.1772 49.2269 48.4406 
762 1 47.5002 34.2525 51.6487 
771 1 43.6707 36.2656 51.8223 
775 1 46.057 36.2363 51.8247 
670 1 49.9774 45.5233 44.9586 
779 1 48.4493 36.4697 52.0097 
768 1 42.1943 38.8707 51.9851 
772 1 44.6204 38.5513 51.9384 
776 1 47.1154 38.5557 52.0076 
780 1 49.5702 38.6768 52.2164 
766 1 39.8869 39.3683 52.039 
793 1 43.3743 40.915 52.0041 
797 1 45.7145 40.8454 52.1073 
801 1 48.2168 40.7736 52.0899 
785 1 38.4992 41.3988 52.0054 
789 1 41.1054 41.5154 51.9878 
794 1 44.554 43.1155 52.0722 
798 1 47.0309 43.0715 52.0958 
802 1 49.4838 43.0385 52.1455 
783 1 37.3301 43.5168 51.7079 
786 1 39.7128 43.4971 52.0164 
790 1 42.2391 43.7713 52.2118 
823 1 45.6489 45.3695 52.0191 
727 1 49.628 44.6898 50.2097 
827 1 48.1859 45.2462 52.2486 
807 1 36.0274 45.7077 51.7049 
811 1 38.3681 45.6744 51.8218 
815 1 40.8545 45.7791 52.1822 
819 1 43.3613 46.0825 52.0213 
824 1 46.7539 47.5437 52.2323 
754 1 48.2932 46.8698 50.2492 
828 1 49.282 47.501 52.4714 
805 1 34.5802 47.8279 51.7365 
808 1 37.0448 47.9273 51.8377 
812 1 39.518 47.9164 51.998 
741 1 41.79 48.9436 50.2422 
835 1 45.6208 49.604 51.8312 
753 1 49.6352 49.1142 50.6216 
761 1 44.8184 35.554 53.8947 
763 1 47.323 35.4431 53.9804 
770 1 40.8265 38.3376 54.1331 
774 1 43.0996 37.5121 53.8832 
778 1 45.8472 37.7797 53.9289 
782 1 48.3325 37.7282 54.2787 
767 1 39.3253 40.3025 54.2482 
769 1 42.0061 40.3873 54.0399 
773 1 44.3043 39.7302 54.008 
777 1 47.0336 39.9749 54.1464 
781 1 49.5529 39.9912 54.3984 
788 1 38.0333 42.4057 54.3464 
792 1 40.6093 42.4669 54.2696 
796 1 43.1819 42.4307 54.0393 
800 1 45.5052 42.0347 54.1033 
804 1 48.1263 42.2813 54.2145 
784 1 36.8945 44.5649 53.8291 
787 1 39.3105 44.6079 54.0814 
791 1 41.791 44.6274 54.6313 
795 1 44.0845 44.776 53.8408 
799 1 46.5459 44.4073 54.0413 
803 1 49.5076 44.3737 54.2687 
810 1 35.79 46.7911 53.969 
814 1 38.2482 46.8521 53.9848 
818 1 40.6387 46.729 54.577 
830 1 48.0561 46.5088 54.3083 
806 1 34.8095 49.0868 53.9158 
809 1 37.2437 49.0314 54.0593 
813 1 39.8251 48.953 54.2807 
816 1 41.8983 47.8356 52.6698 
817 1 42.4102 49.1887 54.496 
820 1 44.4775 48.074 53.2357 
825 1 46.8301 48.5516 54.4083 
836 1 48.0224 49.8368 52.3468 
829 1 49.4519 48.6558 54.7 
838 1 47.9123 34.348 56.049 
847 1 43.4174 35.9881 55.8204 
851 1 46.0027 36.0491 55.9805 
765 1 49.5606 35.8202 54.973 
2082 1 47.5651 49.9917 46.9645 
848 1 44.3708 38.1396 55.8528 
852 1 46.8085 38.4249 56.3068 
856 1 49.3236 38.6431 56.5896 
842 1 40.1023 39.0884 56.4416 
3700 1 49.2267 48.2392 56.8694 
865 1 41.48 40.9732 56.1945 
821 1 44.6792 49.6474 55.117 
873 1 45.4877 40.5684 55.9857 
877 1 48.0658 40.7036 56.3531 
861 1 39.0589 41.4033 56.4967 
866 1 42.6019 43.1003 56.2741 
874 1 46.6957 42.8511 56.0363 
878 1 49.1806 42.7783 56.4428 
859 1 37.6999 43.4751 56.6834 
862 1 40.2129 43.633 56.4237 
895 1 43.6254 45.2227 56.2627 
899 1 45.9101 45.5881 57.0918 
903 1 47.8971 44.8367 55.9902 
883 1 36.3146 45.5555 56.1599 
887 1 38.8019 45.7242 56.1928 
822 1 42.9942 46.9168 54.7693 
891 1 41.2754 45.8652 57.0285 
826 1 45.5212 46.5111 54.8272 
881 1 34.9818 47.7353 56.1586 
884 1 37.3747 47.7584 56.1248 
888 1 39.8052 47.8867 56.5731 
704 1 49.9929 38.9856 48.1302 
834 1 43.1279 49.8851 52.191 
726 1 49.9613 43.3403 47.9294 
630 1 35.0727 47.9102 42.9263 
764 1 49.9157 34.5666 51.4576 
619 1 37.3501 43.4935 43.0006 
631 1 36.1649 45.7772 42.8902 
855 1 48.2075 36.4997 57.061 
759 1 45.4389 49.9734 47.8938 
840 1 49.2411 34.4568 58.0898 
841 1 49.1386 36.4464 59.4676 
846 1 40.638 38.2475 58.7587 
858 1 47.2382 37.9294 58.7335 
843 1 39.4915 40.3315 58.6737 
845 1 41.8193 40.2169 59.3905 
854 1 45.1203 39.122 58.0489 
857 1 48.3695 40.0031 58.585 
864 1 38.6847 42.5761 58.8302 
868 1 41.107 42.2789 58.2615 
872 1 43.2652 42.197 59.6111 
870 1 44.8259 43.3907 57.3283 
853 1 46.3359 41.5456 58.1542 
880 1 48.5203 42.3896 59.0047 
860 1 37.8408 45.3168 58.3838 
863 1 40.0999 44.4288 59.0013 
867 1 42.5545 44.191 58.3724 
871 1 44.7784 44.3512 59.4541 
875 1 47.2202 44.5554 58.8644 
886 1 35.9907 46.9217 58.2657 
890 1 39.5893 46.8992 58.8099 
898 1 43.691 46.4811 58.2887 
902 1 45.9651 46.5704 59.304 
904 1 48.7352 46.1526 57.6453 
882 1 35.3181 49.1817 58.1528 
885 1 37.9693 48.7949 58.1508 
889 1 40.4089 49.221 58.6399 
893 1 42.6355 48.5661 59.2621 
897 1 44.9016 48.7377 58.8668 
993 1 49.9015 36.0083 68.0551 
901 1 47.3048 48.7476 59.376 
905 1 49.7896 48.4519 59.2237 
839 1 46.8851 35.4739 59.4503 
914 1 48.1709 35.0957 61.4215 
837 1 45.124 37.0966 59.4513 
923 1 43.9277 36.8153 61.5178 
927 1 46.5429 36.9235 61.5485 
931 1 48.8475 37.6924 61.692 
937 1 38.8494 40.6072 61.1005 
941 1 41.1559 40.7036 61.5465 
850 1 43.7142 38.9504 60.0306 
849 1 45.2445 40.7071 60.0368 
928 1 47.1862 39.3245 60.7513 
932 1 49.5433 39.7107 60.7475 
935 1 37.4809 42.7872 60.9659 
938 1 39.8548 42.9802 61.13 
942 1 42.2846 43.0044 61.6385 
876 1 46.3798 42.9006 60.3291 
953 1 48.2099 41.6735 61.2805 
963 1 38.3324 45.043 61.4486 
967 1 40.8654 45.1947 61.6629 
971 1 43.3013 45.0174 61.1415 
975 1 45.9239 45.2357 61.6139 
879 1 49.5482 44.6175 59.8362 
979 1 48.286 45.5314 61.7616 
959 1 36.374 45.8923 60.5367 
894 1 41.7485 46.1484 59.6 
972 1 44.3 47.2314 61.0036 
976 1 46.6424 47.5739 61.6802 
906 1 48.2361 46.7343 59.7674 
980 1 49.6961 47.6044 61.5896 
957 1 35.3427 48.2007 60.4782 
960 1 37.6452 47.7525 60.1386 
984 1 38.3962 49.466 61.5457 
985 1 40.5583 49.4564 60.9875 
986 1 43.0648 49.5602 61.3338 
987 1 45.4773 49.6966 60.8638 
988 1 48.0699 49.4361 61.7316 
913 1 45.3299 35.9771 63.4756 
915 1 47.9069 36.1299 63.5651 
918 1 39.9934 38.3284 61.3193 
922 1 41.0018 37.7619 63.6456 
920 1 42.2975 38.5844 61.8331 
926 1 43.6458 37.94 63.7813 
924 1 45.1228 38.8434 61.9441 
930 1 46.5457 38.2546 63.8638 
934 1 49.0435 38.4547 64.0223 
919 1 39.6897 39.8091 63.4591 
945 1 43.5524 40.8717 61.8085 
921 1 42.3744 40.0948 63.8538 
925 1 44.8854 40.1835 64.049 
949 1 46.1596 41.1051 62.2237 
933 1 49.4509 40.7328 62.9839 
940 1 38.1507 41.803 63.2962 
944 1 40.7314 42.0084 63.5299 
948 1 43.3866 42.379 64.0129 
946 1 44.6295 43.0704 62.0131 
950 1 47.2586 43.4113 62.6943 
936 1 36.8063 43.9563 63.108 
939 1 39.3565 44.0975 63.4663 
943 1 41.7954 44.2471 63.7541 
947 1 44.8438 44.5422 63.983 
951 1 47.262 45.4113 63.8524 
954 1 49.6228 43.6472 62.1924 
962 1 35.8882 46.1749 62.9799 
966 1 38.3043 46.3865 63.3988 
964 1 39.5712 47.2407 61.5301 
970 1 40.9297 46.5175 63.7634 
968 1 41.9287 47.531 61.7254 
974 1 43.3463 46.094 63.1651 
978 1 45.6169 47.0578 63.9782 
955 1 49.8739 45.8496 63.7414 
982 1 48.1087 47.7296 63.6888 
958 1 34.6293 48.354 63.0138 
961 1 36.9127 48.4777 63.3012 
965 1 39.4024 48.5501 63.6407 
969 1 41.6351 48.826 63.8594 
973 1 43.8638 48.5151 63.2104 
977 1 46.0149 49.541 63.3338 
981 1 49.3595 49.7513 63.6827 
999 1 44.0532 36.4649 65.6431 
1003 1 46.5505 36.4251 65.5959 
990 1 48.6382 34.8656 65.3718 
994 1 39.8979 38.6551 65.7571 
996 1 42.3449 38.4794 65.9326 
1000 1 45.0112 38.6832 65.863 
1004 1 47.3889 38.8871 66.1294 
1007 1 48.8997 37.0443 66.0515 
1013 1 38.774 40.8285 65.5349 
1017 1 41.1248 40.9273 65.8123 
1021 1 43.6105 40.8811 66.1567 
929 1 47.5493 40.566 64.2981 
1025 1 45.9886 40.9408 66.2415 
1063 1 45.7737 49.8554 65.908 
1011 1 37.4467 42.9658 65.4195 
1014 1 39.8562 43.0859 65.6619 
1018 1 42.2866 43.1031 66.0012 
1022 1 44.6086 43.2132 66.2624 
952 1 45.8551 42.3888 64.2704 
1026 1 47.1875 43.2187 66.3221 
956 1 48.9902 42.8808 64.4574 
1029 1 48.6725 41.2107 66.3754 
1035 1 36.1097 45.0254 65.2224 
1039 1 38.5572 45.2106 65.481 
1043 1 41.0093 45.2302 65.8337 
1047 1 43.4764 45.3658 65.991 
1051 1 45.9319 45.4063 66.0744 
1055 1 48.5625 45.2383 65.8081 
1033 1 34.762 47.1293 65.1316 
1036 1 37.1911 47.3246 65.5016 
1040 1 39.7499 47.5311 65.8344 
1044 1 42.1101 47.4573 65.9376 
1048 1 44.6085 47.5447 65.9956 
1052 1 47.2008 47.6359 65.9056 
1056 1 49.7531 47.6513 65.6182 
1059 1 35.6819 49.3861 65.2157 
1060 1 38.3619 49.5557 65.7053 
1061 1 40.8874 49.8293 65.9358 
1062 1 43.4021 49.6738 65.4155 
1064 1 48.3614 49.8709 66.0057 
989 1 45.1225 35.6316 67.5571 
991 1 47.5689 35.4516 67.5984 
1084 1 49.9962 38.9265 70.4499 
998 1 41.0901 37.9175 67.9519 
1002 1 43.6334 37.5882 67.8816 
1006 1 46.2651 37.6392 67.9542 
1010 1 48.6809 38.17 68.3116 
995 1 39.524 39.8784 67.8556 
997 1 42.1231 40.1434 67.8509 
1001 1 44.6533 39.7047 68.1359 
1005 1 47.1377 40.082 68.4113 
1009 1 49.761 40.5666 68.6898 
1016 1 38.132 41.9955 67.736 
1020 1 40.5874 42.2037 67.8729 
1024 1 43.0889 42.3648 68.1973 
1028 1 45.5279 42.2014 68.3483 
1032 1 48.1713 42.3941 68.5397 
1012 1 36.7865 44.1392 67.472 
1015 1 39.2607 44.3819 67.7156 
1019 1 41.8494 44.4795 68.0183 
1023 1 44.4214 44.5165 68.274 
1027 1 47.0263 44.5453 68.2787 
1030 1 49.8481 43.4867 66.8745 