ITEM: TIMESTEP
20000
ITEM: NUMBER OF ATOMS
5538
ITEM: BOX BOUNDS pp pp pp
0.102528 99.8975
0.375086 99.6249
-1.22644 101.226
ITEM: ATOMS id type x y z 
4 1 48.7479 34.5733 8.04685 
1 1 45.2066 37.214 8.42104 
2 1 46.4925 35.4552 7.69957 
10 1 41.1628 37.3305 7.83436 
11 1 43.21 38.6368 8.73201 
45 1 34.5018 45.9661 8.94054 
60 1 43.3238 46.6327 8.14931 
46 1 35.5157 48.0699 7.82008 
5 1 48.7082 34.9671 10.4339 
15 1 44.0338 36.3474 10.3225 
3 1 46.2538 34.8303 9.95698 
6 1 38.9278 37.9507 8.63211 
8 1 42.0357 37.2869 10.2111 
14 1 45.1229 39.2005 9.91887 
7 1 37.9306 39.1196 10.3477 
47 1 33.9835 41.5909 9.43349 
25 1 36.2031 40.765 10.3921 
23 1 38.0577 42.3173 9.69079 
38 1 46.4309 42.7003 10.2167 
50 1 33.3541 43.9378 9.64035 
24 1 35.6768 43.1291 10.3976 
63 1 44.129 44.8115 9.58988 
39 1 46.5597 44.93 9.60381 
43 1 49.0256 45.5313 9.7057 
48 1 34.615 45.344 11.0894 
62 1 41.8477 46.0729 10.4042 
66 1 45.0412 46.9933 10.0632 
71 1 36.0514 47.6877 10.2443 
61 1 42.9566 48.3195 9.94632 
65 1 47.0113 48.4613 10.4938 
56 1 42.3372 48.9067 12.205 
18 1 44.775 37.2769 12.6602 
19 1 46.9795 36.2204 11.5867 
22 1 49.2768 35.9628 12.7229 
29 1 39.8307 37.7266 10.896 
12 1 42.7807 38.4772 12.2098 
13 1 45.3423 39.7782 12.4029 
16 1 47.3048 38.3119 12.5674 
32 1 39.2979 40.8827 11.0596 
9 1 41.1907 39.5769 10.7068 
33 1 43.4924 40.5259 11.2077 
40 1 45.8735 41.9855 12.5195 
44 1 48.2087 41.6807 11.7339 
28 1 37.0446 41.8947 12.1942 
26 1 39.3434 42.6965 12.7756 
30 1 41.5317 41.948 11.664 
35 1 43.8807 42.8486 11.0507 
1500 1 44.9794 48.6628 11.7579 
51 1 35.7659 43.8751 12.8621 
27 1 37.8793 43.8727 11.2758 
31 1 40.2866 44.2107 11.0184 
59 1 42.1307 44.3293 12.474 
64 1 45.2021 44.651 11.8619 
67 1 47.5684 44.0513 12.1241 
54 1 36.3476 46.2302 12.2729 
52 1 38.8121 46.0119 11.9781 
58 1 41.0143 46.8449 12.4369 
75 1 43.5393 46.6161 12.0977 
70 1 47.1974 46.2709 11.3605 
68 1 49.4439 46.1405 12.1701 
49 1 34.3325 47.911 11.7399 
1491 1 36.3219 49.8108 11.2204 
76 1 48.2317 48.2119 12.7399 
53 1 37.8912 48.3289 11.9974 
73 1 40.1933 48.8253 11.3878 
42 1 49.6487 43.4423 10.8295 
41 1 49.8247 40.3828 13.0509 
1503 1 48.7935 49.865 11.0084 
36 1 43.4779 41.6679 13.2309 
72 1 35.0329 49.624 13.3647 
94 1 44.267 34.9971 15.696 
90 1 41.6027 34.8372 14.9823 
88 1 42.9931 37.1064 14.3216 
98 1 47.6365 36.774 14.442 
89 1 43.6469 39.614 14.2326 
93 1 45.7368 38.407 14.5143 
97 1 48.7532 38.8677 15.4643 
104 1 35.9373 41.0553 16.7748 
108 1 38.7299 41.5197 14.8284 
37 1 45.2353 41.4721 14.8824 
120 1 49.4427 41.1377 15.2541 
17 1 47.4154 40.3711 13.7287 
100 1 36.6515 42.5838 14.7333 
107 1 41.5127 42.4334 14.1799 
34 1 46.176 43.8075 14.254 
123 1 34.4789 43.9825 15.1296 
103 1 37.9838 44.6112 13.8705 
55 1 40.4373 44.8228 14.2068 
111 1 43.625 43.8353 14.2713 
379 1 45.682 49.7665 26.6103 
119 1 49.5052 44.4913 13.7174 
126 1 34.3508 47.5375 14.4259 
130 1 35.9462 45.7311 14.6274 
134 1 39.1099 46.999 14.1575 
138 1 42.5449 46.143 14.3493 
142 1 44.9982 45.9108 13.9463 
140 1 46.1929 46.8944 16.1328 
145 1 48.4098 47.5641 15.0788 
125 1 35.3518 49.0275 15.8691 
148 1 37.6379 49.8833 15.7684 
129 1 36.9521 48.2014 13.9474 
1563 1 39.1319 49.62 13.7966 
133 1 41.2511 48.4629 14.4495 
137 1 43.895 48.2235 14.0202 
233 1 49.4463 35.6656 24.7878 
377 1 40.5229 49.8547 26.6418 
87 1 41.6442 33.0826 16.6043 
78 1 47.6104 32.048 17.3344 
77 1 41.1571 34.8211 18.2305 
91 1 43.4501 34.0419 17.7372 
79 1 45.5579 33.0885 16.9785 
95 1 46.8023 35.0007 15.9548 
248 1 49.6264 38.7884 22.639 
82 1 40.0623 37.0222 18.6232 
84 1 41.2878 36.6093 16.47 
167 1 45.4153 35.7463 17.8627 
92 1 46.8609 37.5734 16.4601 
96 1 48.9733 36.7557 17.0637 
83 1 38.0029 37.5255 17.4724 
85 1 40.0005 38.7697 16.9102 
109 1 42.3077 38.9414 16.0796 
113 1 44.3906 37.5664 16.3439 
172 1 49.3829 38.8229 18.1612 
101 1 36.1527 39.1884 18.3822 
105 1 37.9161 39.9139 16.5892 
112 1 40.8634 40.7841 15.9091 
185 1 43.1384 40.9091 18.5208 
116 1 44.2934 40.0276 16.4566 
117 1 46.6986 39.9013 16.2735 
193 1 48.2629 40.9992 18.0725 
99 1 34.6992 42.995 17.2849 
175 1 36.699 43.1238 18.6694 
102 1 37.9763 42.6012 16.9057 
106 1 40.307 43.0093 16.2899 
182 1 41.7929 42.9477 18.4881 
110 1 43.049 42.2426 16.2869 
114 1 47.3663 42.1049 15.8136 
190 1 47.0829 43.0893 18.213 
118 1 49.4575 43.4932 15.7666 
194 1 49.6052 43.2353 18.2531 
127 1 36.5501 44.4999 16.421 
203 1 38.0136 45.114 18.6646 
131 1 39.0618 44.9087 16.3014 
207 1 40.6382 45.1758 18.1929 
135 1 42.1044 44.5248 16.4044 
211 1 43.1811 45.1884 18.4752 
115 1 45.2656 43.3637 16.3622 
143 1 47.2662 44.8527 16.1586 
215 1 45.6783 45.233 18.2276 
219 1 48.4006 45.3508 18.427 
121 1 32.9824 47.2183 16.1654 
124 1 35.3359 46.6129 16.6233 
200 1 36.8706 47.2125 18.3931 
128 1 37.7975 46.8568 16.0972 
132 1 40.7279 46.5289 16.183 
204 1 39.2841 47.334 18.283 
136 1 43.0294 47.8367 16.2146 
208 1 41.9256 47.3133 18.3214 
139 1 44.2393 45.5436 16.4118 
212 1 44.4851 47.4662 18.1478 
216 1 47.0893 47.5662 18.1569 
220 1 49.488 47.5054 18.113 
144 1 49.4143 45.9685 16.4054 
122 1 30.9922 48.3376 16.6502 
81 1 48.6597 33.8039 16.1393 
223 1 35.4587 49.2379 18.2457 
224 1 38.09 49.5535 18.2349 
149 1 39.5843 48.7707 16.2599 
225 1 40.5325 49.5794 18.3591 
150 1 41.7687 49.9862 16.1669 
226 1 43.2545 49.6845 18.0673 
151 1 44.9301 48.9445 16.053 
152 1 47.225 49.2594 16.1989 
227 1 45.7142 49.7062 18.316 
228 1 48.3631 49.7481 18.2324 
154 1 46.9881 33.8936 18.8872 
156 1 48.9993 34.7746 18.3611 
86 1 41.8907 36.1234 20.2809 
163 1 43.0611 36.4478 18.1467 
153 1 44.5834 35.978 20.3041 
171 1 47.3785 36.4958 19.1707 
158 1 38.3952 38.3341 19.6307 
162 1 40.6429 38.1857 20.6007 
160 1 41.9027 38.6984 18.4805 
166 1 43.185 37.9936 20.6765 
164 1 44.304 38.5554 18.6554 
168 1 46.918 38.8048 18.4661 
170 1 45.8121 38.0736 20.5507 
174 1 48.5406 37.9436 20.4238 
177 1 38.0156 40.7586 18.7352 
181 1 40.5555 40.7186 18.4281 
159 1 39.296 40.431 20.6191 
161 1 41.905 40.2626 20.503 
165 1 44.6058 40.1393 20.5848 
189 1 45.5253 40.8467 18.3085 
169 1 47.0679 40.2702 20.365 
173 1 49.6261 40.3482 20.3588 
180 1 37.9237 42.6398 20.6599 
178 1 39.4516 43.0174 18.7088 
184 1 40.6969 42.4834 20.6681 
188 1 43.3159 42.2685 20.5465 
186 1 44.3182 43.0848 18.5319 
192 1 45.8537 42.4802 20.3274 
196 1 48.5152 42.5324 20.4684 
199 1 34.9525 45.0711 18.6584 
176 1 36.515 44.6533 20.5557 
179 1 39.3886 44.752 20.5232 
183 1 41.7938 44.7022 20.4633 
187 1 44.4127 44.5757 20.5286 
191 1 47.1201 44.5625 20.4092 
195 1 49.5422 44.7932 20.4848 
197 1 34.078 47.3761 18.4951 
202 1 35.4608 46.7692 20.4483 
206 1 37.9195 46.9518 20.4855 
210 1 40.4976 46.8336 20.2313 
214 1 43.2354 46.7359 20.5159 
218 1 45.7347 46.7828 20.2123 
222 1 48.258 46.9787 20.2509 
198 1 34.2464 48.6771 20.4835 
201 1 36.7422 49.069 20.4571 
205 1 39.3172 48.9278 20.3913 
209 1 41.9639 48.8692 20.3946 
213 1 44.4304 48.9749 20.3121 
217 1 47.085 49.1598 20.3091 
221 1 49.537 49.0635 20.2993 
155 1 46.796 35.125 20.982 
230 1 48.1196 34.3759 23.0405 
239 1 43.1509 36.4198 22.5548 
243 1 45.5029 36.6132 22.5431 
247 1 48.1544 36.6915 22.6134 
234 1 39.1335 38.9899 22.5888 
236 1 42.1094 38.778 22.6619 
240 1 44.6251 38.7887 22.5525 
244 1 47.062 38.9045 22.637 
146 1 47.4369 45.8391 13.872 
253 1 37.8947 40.9707 22.5859 
257 1 40.749 40.8928 22.5806 
261 1 43.3701 40.899 22.5796 
265 1 45.8807 41.1413 22.3443 
269 1 48.523 40.9486 22.4027 
251 1 36.6603 43.1527 22.676 
254 1 39.4217 43.0078 22.6882 
258 1 41.9246 43.2767 22.5717 
262 1 44.5129 43.112 22.5605 
266 1 47.1068 43.1478 22.5207 
270 1 49.4823 43.228 22.4143 
275 1 35.4883 45.5734 22.7886 
279 1 37.9768 45.4259 22.4233 
283 1 40.5723 45.2873 22.524 
287 1 43.2273 45.4381 22.5697 
291 1 45.8946 45.4135 22.4737 
295 1 48.294 45.57 22.3451 
273 1 34.2389 47.4142 22.6237 
276 1 36.783 47.5673 22.6215 
280 1 39.2565 47.502 22.4454 
284 1 41.843 47.4756 22.4139 
288 1 44.5158 47.5442 22.3265 
292 1 47.0523 47.7388 22.3738 
296 1 49.6453 47.8126 22.4181 
299 1 35.4352 49.5939 22.5494 
300 1 37.9721 49.6457 22.449 
301 1 40.5486 49.7557 22.407 
302 1 43.153 49.7407 22.3684 
303 1 45.7727 49.765 22.3729 
157 1 49.5106 35.074 20.9037 
229 1 44.4907 35.8581 24.6876 
231 1 46.9622 35.7828 24.7489 
308 1 49.4769 34.2231 26.8886 
238 1 40.4269 38.2219 24.6431 
242 1 43.2181 37.8977 24.5969 
246 1 45.6432 38.06 24.6429 
250 1 48.4259 38.0435 24.7074 
235 1 39.1956 40.6475 24.7187 
237 1 42.0514 40.3196 24.5974 
241 1 44.532 40.4008 24.6705 
245 1 47.0795 40.4117 24.6292 
249 1 49.5853 40.2392 24.7214 
256 1 37.8756 42.6983 24.7119 
260 1 40.6184 42.5494 24.5016 
264 1 43.1919 42.6328 24.7973 
268 1 45.7969 42.5231 24.5319 
272 1 48.5348 42.499 24.6145 
252 1 36.6443 44.8582 24.6791 
255 1 39.3284 44.6841 24.5179 
259 1 41.8966 44.6937 24.6517 
263 1 44.6369 44.6801 24.4108 
267 1 47.1007 44.7075 24.3962 
271 1 49.5002 44.7504 24.3763 
278 1 35.4277 47.2011 24.8491 
282 1 37.9997 46.8944 24.5651 
286 1 40.5851 47.0702 24.5342 
290 1 43.1179 46.9242 24.5648 
294 1 45.6362 47.0107 24.5384 
298 1 48.1947 47.0232 24.4554 
274 1 33.9952 49.1719 24.6016 
277 1 36.7834 49.2029 24.623 
281 1 39.2349 49.1701 24.4793 
285 1 41.8865 49.1712 24.5243 
289 1 44.474 49.1891 24.4862 
293 1 47.1722 49.2201 24.363 
297 1 49.6484 49.1581 24.5033 
306 1 47.2607 34.6544 26.9532 
141 1 46.1939 47.9421 13.8344 
315 1 43.3633 36.6382 26.681 
319 1 45.7992 36.6201 26.6517 
323 1 48.3433 36.6696 26.8946 
310 1 39.4156 39.0617 26.7018 
312 1 41.8904 38.6733 26.6567 
316 1 44.4671 38.9488 26.5988 
320 1 47.1746 38.931 26.6637 
324 1 49.6675 38.8101 26.6905 
329 1 37.9213 41.143 26.6021 
333 1 40.6307 41.0061 26.6787 
337 1 43.3182 41.0053 26.7269 
341 1 45.8533 41.0258 26.7364 
345 1 48.3899 41.1788 26.7346 
327 1 36.3975 43.1863 26.7305 
330 1 39.5063 43.2196 26.5547 
334 1 42.0206 43.2236 26.713 
338 1 44.4358 43.3073 26.6512 
342 1 47.0178 43.3113 26.528 
346 1 49.6814 43.3131 26.5962 
351 1 35.493 45.5889 26.772 
355 1 38.1821 45.4511 26.7237 
359 1 40.6319 45.4067 26.5704 
363 1 43.2276 45.4723 26.5985 
367 1 45.816 45.5189 26.7743 
371 1 48.5013 45.5826 26.5877 
349 1 34.202 47.8397 26.8615 
352 1 36.8732 47.6765 26.8729 
356 1 39.2487 47.6458 26.6146 
360 1 41.8044 47.6692 26.6231 
364 1 44.261 47.7694 26.6001 
368 1 46.9706 47.8361 26.4978 
372 1 49.673 47.9009 26.6526 
21 1 49.6357 38.0919 13.4234 
376 1 38.0888 49.9888 26.6402 
378 1 43.1608 49.8577 26.7649 
147 1 33.057 49.6424 17.1973 
20 1 49.7388 35.5344 14.9548 
305 1 44.5251 35.7999 28.7763 
307 1 46.9881 35.965 28.9228 
536 1 49.8634 34.5734 39.2247 
314 1 40.6188 38.2247 28.7695 
318 1 43.2899 38.199 28.7184 
322 1 45.8329 38.163 28.7902 
326 1 48.2015 38.1385 28.9161 
311 1 39.0718 40.5912 28.7986 
313 1 41.8216 40.4271 28.6531 
317 1 44.3239 40.2699 28.7828 
321 1 47.0619 40.4409 28.7112 
309 1 49.5661 35.793 28.7029 
332 1 37.9176 42.7954 28.6826 
336 1 40.6027 42.5582 28.7183 
340 1 43.1797 42.4786 28.8331 
344 1 45.7788 42.4845 28.7424 
348 1 48.3838 42.604 28.5725 
328 1 36.5778 44.8588 28.6985 
331 1 39.3004 44.8233 28.7559 
335 1 41.936 44.8359 28.7413 
339 1 44.5525 44.7333 28.8133 
343 1 47.1617 44.7492 28.6757 
347 1 49.7801 44.8805 28.7716 
354 1 35.3466 46.9818 28.8257 
358 1 38.046 47.0647 28.7981 
362 1 40.603 47.0205 28.7831 
366 1 43.0589 47.0671 28.7377 
370 1 45.8148 46.9028 28.7537 
374 1 48.4295 46.9719 28.8339 
350 1 34.348 49.3515 28.6235 
353 1 36.7781 49.3971 28.7235 
357 1 39.2178 49.27 28.6935 
361 1 41.8813 49.2835 28.8789 
365 1 44.4023 49.2797 28.6779 
369 1 46.9276 49.2412 28.7623 
373 1 49.6255 49.2188 28.567 
381 1 47.5807 34.6587 30.8908 
385 1 43.4568 36.7029 30.9191 
387 1 45.8819 36.5926 30.8922 
389 1 48.5025 36.7726 30.7868 
383 1 39.5499 39.1046 30.779 
384 1 41.8645 38.8793 31.0125 
386 1 44.6841 38.7907 30.9854 
388 1 47.1094 38.9119 30.9539 
390 1 49.6956 39.0153 30.9454 
392 1 37.9604 41.2857 30.9566 
394 1 40.7638 41.2187 30.8248 
396 1 43.1868 41.061 30.8797 
398 1 45.7027 41.1797 30.8118 
400 1 48.2847 41.2399 30.9428 
391 1 36.7488 43.4602 30.952 
393 1 39.5433 43.4313 30.9503 
395 1 42.076 43.4505 30.8384 
397 1 44.5626 43.3663 30.8398 
399 1 46.9854 43.4814 30.9677 
401 1 49.5902 43.3603 30.93 
403 1 35.5383 45.7768 31.0057 
405 1 38.2284 45.5354 30.7178 
407 1 40.7753 45.595 30.7577 
409 1 43.1819 45.6715 30.7661 
411 1 45.8905 45.6598 30.929 
440 1 47.078 44.8576 33.0108 
413 1 48.306 45.5718 30.9662 
402 1 34.1976 48.0429 30.6412 
404 1 36.8357 47.692 30.6453 
448 1 38.157 47.1491 32.7693 
406 1 39.442 47.7865 30.8082 
408 1 41.9971 47.7765 30.8714 
452 1 43.2699 47.0085 32.8192 
410 1 44.5097 47.8976 30.796 
412 1 47.0376 47.7307 30.7125 
414 1 49.6366 47.7613 30.8619 
456 1 48.2288 47.1282 32.8787 
581 1 36.7205 49.3191 41.3587 
585 1 39.4159 49.3479 41.4016 
449 1 42.0391 49.3211 32.9752 
460 1 49.6336 34.4716 35.1008 
451 1 44.5862 49.1424 32.905 
325 1 49.6181 40.295 28.7793 
453 1 47.1273 49.2004 32.8957 
455 1 49.6192 49.3206 32.9888 
537 1 49.6783 36.0742 41.3386 
423 1 49.7166 35.7776 33.0642 
421 1 44.5356 36.0354 33.0023 
467 1 43.5436 36.9112 35.2331 
422 1 47.0082 35.99 32.9552 
471 1 46.001 36.9203 35.0963 
475 1 48.5139 36.7778 35.1227 
416 1 38.1457 49.8314 30.8128 
426 1 40.5284 38.0485 32.9503 
462 1 39.3481 38.9467 35.0775 
428 1 43.1023 38.0752 33.1524 
464 1 41.7915 38.9152 35.1614 
468 1 44.4417 39.1456 35.1108 
430 1 45.7905 38.2191 33.0015 
472 1 47.0782 39.2173 35.1615 
432 1 48.448 38.0533 33.1338 
476 1 49.5328 38.8335 35.1053 
481 1 38.2721 41.3151 35.1483 
424 1 39.4564 40.2594 32.9234 
485 1 40.6263 41.2573 35.1052 
425 1 41.9817 40.4267 33.1083 
489 1 43.1635 41.2273 35.052 
427 1 44.4445 40.3071 33.0206 
429 1 47.0275 40.4745 32.9812 
493 1 45.7428 41.1986 35.1426 
431 1 49.546 40.4981 33.0885 
497 1 48.3507 41.276 35.191 
435 1 38.0569 42.5224 33.0461 
479 1 36.9018 43.3163 35.0625 
437 1 40.7083 42.5087 33.0023 
482 1 39.3556 43.4739 34.9632 
439 1 43.0644 42.5342 32.8483 
486 1 41.925 43.4912 34.9189 
490 1 44.5431 43.5092 34.9711 
441 1 45.6693 42.517 32.9669 
494 1 46.9446 43.3555 35.1055 
443 1 48.3893 42.679 33.0301 
498 1 49.4552 43.5933 34.9929 
433 1 36.8094 44.8399 32.9538 
503 1 35.5226 45.2945 34.8618 
507 1 38.0263 45.5701 35.0014 
434 1 39.3592 44.8324 32.8445 
511 1 40.659 45.5645 34.9777 
436 1 42.0454 44.8613 32.8896 
515 1 43.271 45.5939 34.9999 
438 1 44.5496 44.8312 32.8495 
519 1 45.7104 45.4949 35.059 
442 1 49.6691 44.8762 32.9683 
523 1 48.365 45.6097 35.1028 
501 1 34.1288 47.6639 34.9514 
446 1 35.5775 47.1772 32.8732 
504 1 36.8501 47.6961 35.0568 
450 1 40.6356 47.0061 32.8709 
508 1 39.3237 47.7864 34.8929 
516 1 44.3738 47.8013 35.1989 
454 1 45.7149 47.1254 33.0659 
444 1 34.3611 49.2429 32.81 
589 1 41.9107 49.3504 41.2222 
445 1 36.844 49.1421 32.9358 
447 1 39.4414 49.3224 32.9081 
512 1 41.8294 47.741 34.9432 
601 1 49.6614 49.5003 41.2484 
520 1 46.9361 47.7878 34.8923 
593 1 44.4754 49.5766 41.2443 
524 1 49.6781 47.8649 34.9664 
458 1 47.2635 34.7591 35.0114 
457 1 44.5806 36.077 37.2373 
459 1 47.0935 35.9072 37.2442 
461 1 49.7809 36.1272 37.1491 
466 1 40.5464 38.3187 37.4124 
470 1 43.1134 38.2407 37.1149 
474 1 45.7398 38.2758 37.1091 
478 1 48.3422 38.2583 37.043 
463 1 39.3583 40.3974 37.265 
465 1 42.0865 40.4175 37.194 
469 1 44.4957 40.5816 37.2149 
473 1 47.1455 40.5358 37.1543 
477 1 49.776 40.359 37.0219 
484 1 38.0974 42.5033 37.2239 
488 1 40.7634 42.5872 37.0577 
492 1 43.1762 42.624 37.0695 
496 1 45.8234 42.5811 37.2614 
500 1 48.4279 42.6671 37.2487 
480 1 36.8512 44.7618 37.0792 
483 1 39.4186 44.8817 36.9066 
487 1 41.8266 44.9692 37.1622 
491 1 44.3339 44.8498 37.1678 
495 1 46.9369 44.9266 37.1671 
499 1 49.4713 44.8876 37.2002 
506 1 35.3121 46.6594 36.979 
510 1 38.0327 47.0932 37.0736 
514 1 40.668 47.1243 37.0493 
518 1 43.1999 47.109 37.0564 
522 1 45.8381 47.2036 37.1294 
526 1 48.2887 47.0915 37.1885 
502 1 34.426 49.1961 37.0838 
505 1 36.6688 49.3446 36.992 
509 1 39.3538 49.3513 37.0056 
513 1 41.9335 49.4639 36.9686 
517 1 44.4114 49.4354 37.1441 
521 1 47.0375 49.4253 37.0745 
525 1 49.684 49.3279 37.1297 
534 1 47.2731 34.6225 39.4492 
597 1 47.0319 49.5183 41.3061 
543 1 43.6061 36.8221 39.3742 
547 1 45.9415 36.8227 39.2763 
551 1 48.5815 36.8559 39.2416 
538 1 39.3509 39.0042 39.4571 
540 1 41.9394 38.9015 39.2039 
544 1 44.5767 39.0603 39.1255 
548 1 47.0124 38.9826 39.3629 
552 1 49.7309 39.063 39.2737 
557 1 37.9909 41.0668 39.3009 
561 1 40.7562 41.2232 39.37 
565 1 43.1108 41.248 39.2182 
569 1 45.8716 41.0559 39.4167 
555 1 37.0647 43.2512 39.2603 
558 1 39.6102 43.4302 39.106 
562 1 41.9577 43.4008 39.3413 
566 1 44.4615 43.3577 39.3281 
573 1 48.2443 41.1878 39.2769 
579 1 35.6675 45.3975 39.2006 
583 1 38.096 45.5683 39.13 
587 1 40.6078 45.7584 39.3108 
570 1 46.993 43.5152 39.2668 
574 1 49.5599 43.5647 39.3717 
577 1 34.275 47.7372 39.218 
591 1 43.2184 45.6964 39.2247 
588 1 41.9182 47.973 39.2144 
595 1 45.5593 45.7153 39.1918 
580 1 36.7591 47.7884 39.0874 
584 1 39.3485 47.7821 39.2529 
592 1 44.467 48.0163 39.0632 
596 1 47.0247 47.9259 39.1707 
600 1 49.4562 47.8522 39.352 
533 1 44.5251 36.0595 41.4258 
535 1 47.0922 36.0682 41.3155 
527 1 35.3125 49.9255 34.8956 
542 1 40.6555 38.5041 41.383 
546 1 43.1639 38.2732 41.3178 
550 1 45.9791 38.235 41.3128 
554 1 48.4987 38.3841 41.2968 
539 1 39.4903 40.4965 41.4227 
541 1 42.0108 40.4866 41.3868 
545 1 44.4372 40.5259 41.3768 
549 1 47.0706 40.4533 41.5187 
553 1 49.6442 40.8294 41.3445 
560 1 38.3009 42.7164 41.2555 
564 1 40.8689 42.6388 41.5053 
568 1 43.2582 42.6784 41.2957 
572 1 45.9306 42.6885 41.2519 
576 1 48.3081 42.8975 41.3617 
556 1 36.8537 44.819 41.2935 
559 1 39.4696 44.8013 41.2698 
563 1 41.9399 44.829 41.2554 
567 1 44.608 44.895 41.3595 
571 1 47.1991 45.0254 41.1842 
575 1 49.6039 44.9779 41.3413 
582 1 35.7006 46.9066 41.1895 
586 1 38.1797 47.0909 41.2769 
590 1 40.7493 47.1954 41.2414 
594 1 43.4065 47.1701 41.3173 
602 1 45.8578 47.1301 41.2724 
578 1 34.2904 49.1921 41.2559 
603 1 35.4854 49.9645 39.2054 
528 1 38.1172 49.8886 34.8608 
419 1 45.8864 49.9341 30.7481 
418 1 43.2629 49.9354 30.8705 
417 1 40.7738 49.8975 30.7817 
420 1 48.3626 49.9361 30.8489 
609 1 47.4506 34.6666 43.1652 
3700 1 49.7013 47.8966 55.8237 
615 1 45.836 36.7365 43.5656 
611 1 39.4111 38.9219 43.5555 
613 1 43.2824 36.8341 43.4486 
612 1 42.0625 39.0078 43.6243 
614 1 44.65 38.9923 43.4055 
616 1 47.1043 39.1488 43.5327 
617 1 48.4791 36.8315 43.4396 
620 1 38.093 41.0623 43.3285 
622 1 40.5088 41.1599 43.5298 
624 1 43.1947 41.3172 43.5465 
618 1 49.8 39.19 43.4324 
619 1 36.977 43.2854 43.3275 
621 1 39.4151 43.503 43.4579 
626 1 45.8723 41.1651 43.5481 
628 1 48.409 41.4617 43.5902 
631 1 35.7219 45.5338 43.3099 
623 1 42.1213 43.6176 43.5274 
625 1 44.5823 43.5365 43.4605 
627 1 46.9833 43.5811 43.3915 
629 1 49.8493 43.6753 43.5278 
630 1 34.2895 47.5566 43.4062 
633 1 38.2002 45.5422 43.3917 
635 1 40.7064 45.6967 43.5043 
637 1 43.2083 45.7146 43.4285 
639 1 45.9185 45.7639 43.3886 
641 1 48.3883 45.7931 43.1683 
632 1 36.83 47.7657 43.516 
634 1 39.2722 47.723 43.3262 
636 1 41.8709 48.0406 43.5333 
598 1 44.5982 48.0674 43.3957 
640 1 47.1275 48.0573 43.4496 
642 1 49.6532 48.1017 43.333 
649 1 44.5127 36.1705 45.6842 
650 1 47.2851 35.9115 45.5159 
651 1 49.8116 36.0889 45.2261 
654 1 40.9835 38.2155 45.7671 
656 1 43.3702 38.3122 45.4725 
658 1 45.8529 38.2391 45.6772 
660 1 48.4528 38.4826 45.5538 
652 1 39.3398 40.3106 45.7833 
653 1 41.9421 40.6253 45.647 
655 1 44.5084 40.5896 45.6751 
657 1 47.2331 40.6996 45.5305 
659 1 49.7825 40.743 45.7092 
663 1 38.1865 42.5463 45.5365 
665 1 40.5705 42.6927 45.4541 
667 1 43.2427 42.8664 45.5122 
669 1 45.8571 42.8608 45.5982 
671 1 48.4688 42.8324 45.6579 
661 1 36.7696 44.9046 45.4469 
662 1 39.4133 45.0154 45.569 
664 1 42.0329 44.9517 45.5497 
666 1 44.5647 45.1939 45.5636 
668 1 47.2747 45.028 45.612 
670 1 49.7054 45.0989 45.4556 
674 1 35.495 47.0248 45.4809 
676 1 38.039 47.0339 45.4809 
678 1 40.7872 47.2697 45.5535 
680 1 43.3212 47.439 45.4783 
638 1 45.9198 47.2531 45.4317 
684 1 48.4691 47.2379 45.329 
672 1 34.1854 48.9613 45.397 
673 1 36.7952 49.2071 45.3396 
675 1 39.3195 49.4243 45.583 
677 1 41.9233 49.7251 45.6146 
679 1 44.5278 49.6262 45.4814 
682 1 47.0632 49.5611 45.4672 
748 1 47.2098 47.9831 47.5072 
683 1 49.6389 49.5019 45.3569 
752 1 49.6545 47.9877 47.3748 
686 1 47.3838 34.7671 47.6688 
610 1 49.8736 34.5563 43.3637 
695 1 43.0358 36.8781 47.4984 
685 1 44.4392 36.3023 49.7311 
699 1 45.8655 36.9336 47.7339 
687 1 47.1742 36.0965 49.9363 
689 1 49.5462 36.1655 49.6943 
690 1 39.3627 38.9249 47.7332 
692 1 41.9122 39.1498 47.8334 
698 1 43.257 38.3072 49.8764 
696 1 44.4352 39.2196 47.7608 
702 1 45.692 38.3496 49.7029 
703 1 48.381 36.938 47.5058 
706 1 48.3025 38.3513 49.6918 
704 1 49.533 39.1479 47.6163 
691 1 39.3183 40.5278 49.7909 
713 1 40.7595 41.4101 47.762 
717 1 43.2002 41.318 47.5596 
693 1 42.0615 40.6222 49.8516 
697 1 44.5667 40.5947 49.7266 
700 1 47.0147 39.1613 47.5191 
701 1 47.2997 40.6384 49.8924 
705 1 49.7936 40.5047 49.7651 
709 1 38.1487 41.1833 47.8224 
712 1 38.1429 42.7355 49.9045 
716 1 40.7002 42.7917 49.6545 
720 1 43.2317 42.875 49.7063 
721 1 45.787 41.3297 47.5943 
724 1 45.6963 42.8228 49.6427 
725 1 48.4466 41.424 47.7506 
728 1 48.4514 42.9284 49.7909 
707 1 36.843 43.3494 47.5337 
708 1 36.6973 44.796 49.6701 
710 1 39.301 43.5598 47.5733 
711 1 39.1953 44.9133 49.7047 
714 1 42.0422 43.5189 47.5657 
718 1 44.5744 43.5642 47.6484 
719 1 44.5073 45.1145 49.6027 
722 1 47.2043 43.5443 47.7045 
723 1 47.1479 44.9495 49.7668 
726 1 49.7852 43.6259 47.6983 
727 1 49.8682 45.1788 49.6203 
729 1 34.3155 47.8153 47.4827 
731 1 35.343 45.3361 47.4577 
734 1 35.6055 47.0434 49.6238 
735 1 38.0758 45.5661 47.7062 
738 1 38.1425 47.1301 49.6167 
739 1 40.5688 45.756 47.6826 
742 1 40.5968 47.1354 49.8067 
743 1 43.2952 45.7278 47.5455 
746 1 43.2566 47.2979 49.5813 
744 1 44.4754 47.8993 47.438 
747 1 45.9181 45.8015 47.5418 
750 1 45.7691 47.1506 49.6112 
751 1 48.5186 45.7192 47.7553 
754 1 48.3077 47.1834 49.5933 
730 1 34.5011 49.3298 49.6891 
732 1 36.6634 47.8586 47.5512 
733 1 37.0293 49.3313 49.7755 
736 1 39.2045 47.9607 47.6709 
737 1 39.3978 49.3806 49.7813 
740 1 41.8321 48.0859 47.6058 
741 1 42.1441 49.2996 49.7276 
745 1 44.557 49.308 49.5322 
749 1 47.084 49.4763 49.6392 
760 1 49.7044 49.4476 49.6044 
762 1 48.6022 34.5607 51.4085 
771 1 43.2076 36.69 51.8898 
775 1 45.6398 37.0139 52.0161 
779 1 48.2594 36.8998 52.0467 
694 1 40.8178 38.5855 49.9304 
768 1 42.1572 39.1205 51.9159 
772 1 44.6189 39.1044 51.9113 
766 1 39.5235 39.0543 51.9118 
789 1 40.6798 41.251 51.8731 
793 1 43.2896 41.2946 51.715 
776 1 47.1354 39.2684 51.8927 
797 1 45.8663 41.4525 51.8145 
801 1 48.5964 41.2689 51.8816 
780 1 49.5846 39.0143 51.678 
785 1 38.0689 41.252 51.8807 
790 1 41.9366 43.4828 51.7122 
794 1 44.5042 43.6261 51.8023 
783 1 36.7967 43.4374 51.851 
786 1 39.434 43.5804 51.8029 
715 1 41.9147 45.0148 49.7763 
798 1 47.1471 43.5801 51.7423 
802 1 49.7187 43.6024 51.7707 
807 1 35.6414 45.8567 51.8668 
811 1 38.1095 45.8658 51.8261 
815 1 40.6378 45.7719 51.7907 
819 1 43.2536 45.6338 51.7315 
823 1 45.9084 45.8402 51.7227 
827 1 48.3475 45.7801 51.8171 
805 1 34.3981 47.8273 51.8215 
808 1 36.8667 47.9274 51.6982 
812 1 39.3346 48.0271 51.9407 
816 1 41.9801 47.7723 51.9114 
820 1 44.4169 47.8323 51.6972 
824 1 47.0106 47.9685 51.6955 
828 1 49.5219 47.8884 51.7052 
838 1 48.7222 33.9639 53.8657 
774 1 42.0183 36.2552 53.9195 
761 1 44.4419 35.95 54.0034 
763 1 47.1231 35.8111 53.8079 
765 1 49.7019 36.0549 53.9332 
770 1 40.6943 38.409 54.0127 
773 1 43.3804 38.2712 53.9785 
778 1 45.9997 38.3671 54.0229 
782 1 48.545 38.3882 53.8494 
767 1 39.2691 40.4439 53.7832 
769 1 41.9818 40.6373 53.9217 
800 1 44.595 40.4558 53.8968 
777 1 47.1129 40.5915 53.977 
781 1 49.6401 40.5871 53.8741 
788 1 38.1632 42.8529 53.7565 
792 1 40.6376 42.9347 53.9353 
796 1 43.3553 42.8163 53.8237 
799 1 45.7936 42.9346 53.939 
804 1 48.4733 42.6882 53.915 
784 1 36.8718 44.9542 53.8265 
787 1 39.5588 45.1061 53.8384 
791 1 42.068 44.9285 53.9119 
795 1 44.6308 44.8906 53.8345 
830 1 47.0817 45.0498 53.9421 
803 1 49.6283 45.1265 53.8423 
810 1 35.7071 47.203 53.8424 
814 1 38.1452 47.1628 53.8831 
818 1 40.6901 47.1219 53.7983 
822 1 43.2558 47.1185 53.9309 
826 1 45.73 47.2439 53.7886 
829 1 48.3958 47.1534 53.7272 
806 1 34.375 49.3908 53.85 
809 1 37.0322 49.4933 53.9181 
813 1 39.5968 49.3266 53.9434 
817 1 42.0209 49.3763 53.761 
821 1 44.552 49.4643 53.8892 
825 1 47.0725 49.4278 53.842 
3627 1 49.7802 49.4601 53.835 
840 1 49.6115 34.446 56.0073 
847 1 40.7605 36.8857 55.9751 
851 1 45.7584 36.6862 56.0316 
855 1 48.4383 36.8197 56.0021 
848 1 43.1569 36.7382 56.0765 
852 1 47.3 39.1087 56.1099 
856 1 49.7768 39.1397 55.9115 
842 1 39.1516 39.1787 55.9752 
844 1 42.1577 38.9982 56.0177 
873 1 44.5521 39.0378 56.0598 
861 1 38.3287 41.4387 55.8693 
865 1 40.6705 41.2079 55.8977 
869 1 43.3567 41.3609 55.9816 
866 1 42.1435 43.4667 55.926 
870 1 44.6109 43.488 55.9722 
874 1 45.9819 41.3653 56.0105 
903 1 47.0909 43.4202 55.905 
877 1 48.5073 41.353 55.9663 
859 1 36.7557 43.3871 55.7096 
862 1 39.5335 43.6469 56.0036 
878 1 49.8115 43.4164 56.0747 
883 1 35.4059 45.626 55.9112 
887 1 38.2105 45.6718 56.0286 
891 1 40.9375 45.8027 55.9636 
895 1 43.4262 45.6498 55.9473 
899 1 45.8605 45.6323 55.9492 
904 1 48.3585 45.6264 55.7981 
881 1 34.298 47.9988 55.8744 
884 1 36.6669 48.0098 55.9123 
888 1 39.4111 47.9681 55.8949 
892 1 42.031 47.9975 55.9522 
896 1 44.5547 47.8569 55.9034 
900 1 47.1438 47.7903 55.8767 
688 1 49.798 34.7853 47.4822 
911 1 45.8622 49.9352 55.9395 
643 1 35.1376 49.9857 43.3014 
755 1 35.3703 49.9724 47.4381 
837 1 44.3443 35.7296 58.0949 
839 1 47.0943 35.893 58.0903 
841 1 49.5831 35.8774 58.0331 
846 1 40.7766 38.5334 57.8787 
850 1 43.4148 38.2049 58.1394 
854 1 45.9543 38.1093 57.9739 
858 1 48.5509 38.2855 58.0999 
843 1 39.3155 40.498 57.9598 
845 1 42.2812 40.535 58.0013 
849 1 44.6536 40.5784 57.9938 
853 1 47.0766 40.4529 58.2168 
857 1 49.5765 40.6213 57.8623 
864 1 38.0543 42.7655 57.9455 
868 1 40.5821 42.7103 57.7784 
872 1 43.2651 42.847 57.9495 
876 1 45.7991 42.7939 58.1495 
880 1 48.3812 42.7944 57.9681 
860 1 36.8304 44.8737 58.0001 
863 1 39.3592 44.8503 58.0937 
867 1 42.0606 44.9684 57.8148 
871 1 44.5775 45.005 58.0528 
875 1 47.2003 44.9018 57.8653 
879 1 49.7394 44.894 58.034 
886 1 35.562 47.0859 57.9969 
890 1 38.1552 47.1903 58.131 
894 1 40.7081 47.0614 58.1219 
898 1 43.2628 47.1858 57.9502 
902 1 45.9109 47.1641 58.0102 
906 1 48.5321 47.0883 58.0082 
882 1 34.2232 49.4425 58.0389 
885 1 36.8428 49.4382 58.1414 
889 1 39.5858 49.2876 58.0193 
893 1 42.1887 49.286 58.0622 
897 1 44.6086 49.3115 58.2028 
901 1 47.2023 49.3354 58.1108 
905 1 49.7784 49.3126 58.0063 
913 1 44.5132 36.1133 62.2206 
927 1 45.6419 36.7619 60.1607 
914 1 47.3697 34.7694 60.12 
920 1 42.1451 39.0255 60.0213 
923 1 43.1561 36.6679 60.0085 
924 1 44.553 39.1089 60.0779 
931 1 48.4699 37.0212 60.1417 
918 1 39.3042 39.0856 59.9423 
945 1 43.3723 41.4599 60.0437 
928 1 47.0785 39.0114 60.0738 
932 1 49.744 39.2128 60.1202 
937 1 37.8649 41.2048 59.8975 
941 1 40.867 41.2203 59.992 
949 1 45.9196 41.2497 60.1945 
950 1 47.1897 43.4268 60.1917 
953 1 48.3951 41.3525 60.1463 
935 1 37.0121 43.5058 60.0381 
938 1 39.3623 43.2554 60.1606 
942 1 41.9021 43.4739 60.0535 
946 1 44.6286 43.4296 60.1518 
954 1 49.6828 43.4455 60.0436 
959 1 35.8446 45.7932 60.131 
963 1 38.2371 45.6696 60.1765 
967 1 40.7311 45.6053 60.1528 
971 1 43.2313 45.5304 60.1027 
975 1 45.969 45.6057 60.1566 
979 1 48.5801 45.7079 60.1785 
957 1 34.4936 47.8796 59.9966 
960 1 36.9096 48.0651 60.0657 
964 1 39.4147 47.9072 60.1146 
968 1 41.999 47.8289 60.0168 
972 1 44.5827 47.7594 59.9775 
976 1 47.3697 47.8673 60.1121 
980 1 49.6806 47.7614 60.1021 
981 1 49.7955 49.2673 62.1469 
992 1 49.8771 34.6995 64.2281 
999 1 43.5152 36.736 64.4881 
915 1 47.1425 35.9538 62.1983 
1007 1 48.5579 36.8376 64.0285 
917 1 49.7654 35.9854 62.1319 
922 1 40.7646 38.4956 62.1583 
926 1 43.256 38.2058 62.1425 
996 1 42.0465 38.8091 64.2618 
1000 1 44.6893 38.779 64.1959 
1003 1 46.0531 36.699 64.3716 
930 1 46.0197 38.1621 62.0938 
934 1 48.5358 38.4597 62.122 
1008 1 49.8651 39.1546 64.3593 
919 1 39.3503 40.608 62.0227 
994 1 39.59 39.1933 64.2785 
1017 1 41.0313 41.2763 64.2933 
921 1 42.1491 40.4879 62.162 
925 1 44.7226 40.3486 62.2772 
929 1 47.253 40.4917 62.1623 
1004 1 47.2116 38.9092 64.1855 
933 1 49.7493 40.5884 62.191 
940 1 38.0526 42.6344 62.0261 
1013 1 38.3196 41.3914 64.0943 
944 1 40.8022 42.5802 62.0385 
948 1 43.2791 42.6751 62.2646 
1021 1 43.5257 41.0252 64.2308 
1018 1 42.1084 43.3954 64.3145 
1022 1 44.7632 43.4585 64.1735 
952 1 45.942 42.7152 62.2222 
1026 1 47.2661 43.5021 64.3567 
1025 1 46.0878 41.2602 64.3023 
956 1 48.3501 42.7581 62.3419 
1029 1 48.5198 41.0424 64.3751 
936 1 36.8406 44.9283 62.2507 
1011 1 36.9937 43.5645 64.2859 
939 1 39.3773 44.749 62.2549 
1014 1 39.5764 43.4112 64.1689 
943 1 42.0109 44.9247 62.2396 
947 1 44.7379 44.8586 62.1908 
951 1 47.2405 44.9591 62.3237 
955 1 49.7803 44.9163 62.1257 
1030 1 49.6565 43.5398 64.1494 
962 1 35.6189 47.0968 62.274 
1035 1 35.7326 45.59 64.2697 
1039 1 38.1969 45.6406 64.3771 
966 1 38.0785 46.9717 62.1452 
970 1 40.7355 47.1617 62.3227 
1043 1 40.8621 45.6253 64.3976 
974 1 43.3168 47.1836 62.1627 
978 1 45.9239 46.945 62.2594 
1051 1 45.9126 45.6252 64.2948 
982 1 48.5113 47.1928 62.2239 
1055 1 48.5269 45.6727 64.2005 
958 1 34.3407 49.2073 62.2259 
961 1 36.9519 49.2625 62.2612 
1036 1 37.0841 47.732 64.4394 
965 1 39.4898 49.151 62.222 
1040 1 39.5742 47.8706 64.2998 
969 1 42.1398 49.3803 62.2728 
1044 1 42.1527 47.9052 64.4111 
973 1 44.7141 49.2963 62.2836 
977 1 47.2658 49.4173 62.2317 
1052 1 47.1815 47.8847 64.3385 
1056 1 49.8269 47.8207 64.3184 
990 1 47.2501 34.5235 63.9711 