5538
Atoms. Timestep: 0
1 42.9033 36.6623 5.30855
1 47.1778 36.164 7.51162
1 45.55 36.7706 5.01014
1 48.8703 34.0022 7.69956
1 50.1406 34.8516 5.2068
1 37.0486 38.3962 7.65187
1 35.809 39.2666 5.27259
1 39.9066 38.2399 7.64374
1 39.8329 41.5873 5.25934
1 38.4917 39.1571 5.21204
1 41.7085 36.0402 7.50996
1 42.8117 38.4062 7.66054
1 42.6039 41.7132 5.17699
1 41.401 39.0768 5.1589
1 44.4175 36.1449 7.62891
1 45.6019 38.5774 7.47384
1 45.5319 41.7575 5.18978
1 44.0561 39.1319 5.16002
1 48.3627 36.8681 5.17961
1 49.8899 41.1039 7.61365
1 49.9208 39.3318 5.13365
1 46.8854 39.3601 5.11338
1 34.2833 43.2417 7.58017
1 32.9763 44.1966 5.34701
1 35.5668 40.7897 7.62271
1 36.9736 43.2279 7.70652
1 35.6557 44.1196 5.21011
1 34.4418 41.5834 5.25859
1 38.4209 40.6574 7.65521
1 39.7076 43.2402 7.71831
1 38.4387 44.1926 5.28198
1 37.0553 41.6135 5.21818
1 41.2289 40.7385 7.63712
1 42.5674 43.2644 7.55347
1 42.6345 46.7835 5.21299
1 41.249 44.1182 5.1873
1 44.0672 40.9822 7.60089
1 45.3723 43.4546 7.67767
1 46.8378 44.1675 5.288
1 44.1073 44.2654 5.23431
1 46.8728 41.0687 7.56854
1 51.0326 43.5621 7.54775
1 49.6009 44.3103 5.12578
1 48.3152 41.7902 5.26438
1 31.597 48.1777 7.49987
1 32.6757 48.9625 5.16005
1 32.8458 45.7228 7.6769
1 34.2109 48.2357 7.7234
1 35.5448 49.141 5.24629
1 31.6968 46.5079 5.21677
1 35.5782 45.7563 7.75433
1 36.9331 48.3553 7.78296
1 38.2474 49.1275 5.29377
1 34.2844 46.6202 5.14311
1 38.3113 45.7939 7.68431
1 39.5784 48.2093 7.69261
1 41.0422 49.1403 5.34114
1 37.1116 46.7095 5.31369
1 41.159 45.7516 7.54372
1 42.4245 48.259 7.65423
1 43.6758 50.8953 7.64907
1 39.884 46.4824 5.26029
1 43.9747 45.9218 7.62508
1 45.1934 48.3551 7.51175
1 48.0371 48.3668 7.47451
1 43.9421 49.196 5.25232
1 48.2749 43.5467 7.61663
1 49.4658 46.0114 7.54008
1 50.7828 48.3606 7.43607
1 46.6839 45.9474 7.67147
1 32.6773 50.6482 7.61292
1 35.3888 50.9231 7.71196
1 38.1322 50.8447 7.70437
1 40.9268 50.8048 7.61693
1 46.5754 50.7174 7.63154
1 49.4933 50.8121 7.60676
1 44.3283 34.5867 12.1978
1 48.4465 38.7254 7.6
1 47.0883 34.4957 12.4588
1 49.9933 36.3309 7.59188
1 49.89 34.5151 12.3884
1 38.2898 37.6822 10.0914
1 38.2599 39.0625 12.5027
1 41.1199 37.385 9.98753
1 41.242 39.1871 12.429
1 39.7626 36.8563 12.3727
1 42.924 35.2643 9.86037
1 44.1988 37.5815 10.0677
1 44.1175 39.3694 12.3697
1 42.5787 36.6591 12.2798
1 45.7552 35.1486 9.9959
1 46.9855 37.6695 10.0368
1 46.9786 39.4089 12.3914
1 45.6187 36.9477 12.4449
1 48.4715 35.2023 10.0253
1 49.9043 37.8454 10.0129
1 49.7494 39.3952 12.3883
1 48.4597 36.9017 12.3673
1 35.4797 42.4774 10.1876
1 35.2357 43.9917 12.4218
1 37.0279 39.9971 9.93041
1 38.3376 42.3667 10.0101
1 38.1445 44.0113 12.4914
1 36.7971 41.4901 12.4083
1 39.8881 39.9093 10.1065
1 41.2312 42.4114 10.0113
1 41.0338 44.0862 12.4631
1 39.679 41.5881 12.4391
1 42.7112 39.9128 10.0601
1 44.0942 42.409 10.1137
1 43.8693 44.2115 12.5902
1 42.4986 41.7178 12.4595
1 45.5759 40.0975 10.0104
1 46.9531 42.7005 10.1098
1 46.7271 44.2971 12.4422
1 45.3772 41.7777 12.4916
1 48.3351 40.2422 9.96414
1 49.6187 42.8172 10.0406
1 49.5413 44.4117 12.473
1 48.2881 41.8732 12.4486
1 32.7297 47.4037 9.9193
1 32.6057 48.8494 12.4642
1 34.1419 44.927 10.014
1 35.4505 47.3779 10.1051
1 35.3324 48.9949 12.5339
1 33.885 46.4505 12.4928
1 36.8343 44.8577 10.1078
1 38.2524 47.3315 10.2489
1 38.1574 49.0902 12.3956
1 36.7733 46.5716 12.4277
1 39.7868 44.8831 10.0647
1 41.0397 47.3984 10.0606
1 40.993 49.1443 12.4227
1 39.7091 46.5727 12.4842
1 42.5427 44.8436 9.96354
1 43.8529 47.5125 10.0744
1 43.8623 49.1291 12.3304
1 42.541 46.496 12.4583
1 45.3287 44.963 10.1083
1 46.6559 47.6569 9.96791
1 46.7047 49.2216 12.4311
1 45.2962 46.7163 12.4781
1 48.1326 45.276 10.1209
1 49.5453 47.7125 9.8646
1 49.5365 49.2966 12.4268
1 48.1411 46.8347 12.5269
1 33.9183 49.8755 10.1322
1 36.7721 49.9959 10.12
1 39.5776 49.8651 10.1243
1 42.3663 50.0319 9.97014
1 45.1741 49.9676 10.052
1 48.0966 50.0025 10.0137
1 44.0396 34.3479 17.0042
1 50.013 32.9436 14.7194
1 46.924 34.352 17.095
1 52.6039 32.8836 14.747
1 49.6918 34.0775 17.1075
1 38.504 37.5337 14.88
1 38.1199 39.0654 17.1395
1 41.227 37.429 14.6167
1 41.108 39.0665 17.1714
1 39.6776 36.7662 17.0959
1 43.037 35.3387 14.6057
1 44.0934 37.6669 14.7394
1 44.0675 39.1204 17.2176
1 42.6034 36.626 17.1109
1 45.7225 35.0389 14.7414
1 46.9467 37.6351 14.7112
1 46.9103 39.2064 17.2117
1 45.4642 36.6875 17.0499
1 48.3747 35.1764 14.8147
1 49.7672 37.63 14.8388
1 49.6744 39.1336 17.2812
1 48.2785 36.7275 17.138
1 35.4365 42.4473 14.6128
1 35.2972 43.7672 17.1969
1 36.9986 39.9324 14.8694
1 38.17 42.4417 14.7862
1 38.151 43.8408 17.3321
1 36.7208 41.4291 17.1966
1 39.7398 40.0011 14.7343
1 41.1381 42.4561 14.894
1 41.0024 44.0503 17.179
1 39.5996 41.4627 17.0969
1 42.5875 39.9563 14.9294
1 43.9418 42.4654 14.7754
1 43.8372 44.0852 17.2751
1 42.543 41.6205 17.2096
1 45.5217 40.0785 14.8564
1 46.839 42.5306 14.9501
1 46.8112 44.1913 17.3045
1 45.3918 41.6803 17.216
1 48.3195 40.1674 14.8501
1 49.6444 42.6884 14.8805
1 49.6209 44.2769 17.2561
1 48.3299 41.6815 17.2491
1 32.5787 47.3517 14.8372
1 32.6853 48.6413 17.1802
1 33.9265 44.8303 14.7525
1 35.3207 47.261 14.8067
1 35.3887 48.8316 17.2111
1 33.8987 46.1959 17.1901
1 36.697 44.8642 14.9217
1 38.267 47.3874 14.8313
1 38.1333 49.0456 17.2377
1 36.7858 46.3968 17.1965
1 39.583 44.8797 14.8358
1 41.0156 47.4678 14.8453
1 40.9589 49.0502 17.3507
1 39.5492 46.4726 17.3016
1 42.4127 44.9531 14.9977
1 43.8271 47.5001 14.8658
1 43.8495 49.1597 17.2123
1 42.4955 46.6094 17.267
1 45.3931 44.9837 14.9211
1 46.688 47.5659 14.9326
1 46.7235 49.2635 17.249
1 45.2731 46.6846 17.1816
1 48.0932 45.0647 14.9526
1 49.5367 47.5841 14.8551
1 49.6421 49.192 17.2388
1 48.1002 46.7448 17.2751
1 33.8252 49.7275 14.8326
1 36.7818 49.8321 14.8234
1 39.5824 49.9315 14.8054
1 42.3927 50.0035 14.8146
1 45.2267 50.0367 14.8039
1 48.0525 50.0179 14.8466
1 44.0971 33.8383 21.6103
1 44.1064 32.7609 19.0554
1 46.8327 33.6839 21.7285
1 46.6484 32.6287 19.2893
1 49.6669 33.851 21.952
1 38.4427 37.4432 19.6412
1 38.3341 38.9954 21.9008
1 41.1792 37.3853 19.4793
1 41.1944 38.8765 21.8262
1 39.7826 36.5961 21.8168
1 42.6292 35.01 19.4805
1 43.9703 37.3926 19.4769
1 44.0618 38.9419 21.8597
1 42.6503 36.4178 21.7957
1 45.4396 35.0084 19.3635
1 46.763 37.4596 19.5373
1 46.8865 38.8228 21.9383
1 45.4461 36.3132 21.9597
1 48.1977 34.9243 19.5622
1 49.627 37.4071 19.6224
1 49.6877 38.8189 21.9496
1 48.2404 36.2534 21.9719
1 35.4612 42.1561 19.5788
1 35.3227 43.7015 21.978
1 36.8856 39.7726 19.5113
1 38.2897 42.1693 19.458
1 38.2176 43.7836 21.8287
1 36.8732 41.3701 21.901
1 39.7194 39.721 19.5917
1 41.1097 42.37 19.5691
1 41.1177 43.9906 21.9015
1 39.7788 41.3974 21.8913
1 42.5685 39.9199 19.5278
1 43.9914 42.4268 19.6317
1 43.9727 43.9476 21.9435
1 42.6006 41.3912 21.9533
1 45.381 39.9222 19.6046
1 46.7705 42.5157 19.6752
1 46.7927 43.9687 22.0052
1 45.4864 41.3584 22.0032
1 48.1615 39.9963 19.6325
1 49.6339 42.4382 19.6552
1 49.6736 44.0515 22.0113
1 48.3041 41.4484 21.9649
1 32.5697 47.0698 19.5408
1 32.4462 48.453 21.9338
1 34.1145 44.5539 19.6179
1 35.2611 46.9796 19.5885
1 35.1879 48.7032 21.9029
1 33.9146 46.1661 21.8927
1 36.8262 44.5958 19.5641
1 38.1232 47.2421 19.5966
1 38.0692 48.8456 22.0092
1 36.7309 46.2445 21.9378
1 39.6692 44.819 19.5649
1 40.9819 47.3301 19.6565
1 40.9912 48.8991 21.9535
1 39.6648 46.3992 21.9884
1 42.5569 44.8381 19.663
1 43.8432 47.5024 19.6359
1 43.9289 49.024 22.0666
1 42.5814 46.4381 21.9272
1 45.2255 44.9537 19.5261
1 46.728 47.4904 19.6767
1 46.7072 49.0303 22.0688
1 45.293 46.54 21.9753
1 48.1551 45.0051 19.7622
1 49.51 47.4796 19.6007
1 49.5915 49.1591 21.9769
1 48.1963 46.5958 22.1101
1 33.6827 49.5334 19.5408
1 36.5513 49.5697 19.5945
1 39.5243 49.8132 19.6914
1 42.507 49.8751 19.7203
1 45.267 49.8923 19.6173
1 48.2099 49.9525 19.6327
1 44.3841 33.6348 26.2526
1 44.7841 32.3774 23.749
1 47.1625 33.5961 26.5671
1 47.3498 32.2806 24.033
1 49.9534 33.6924 26.6888
1 38.6462 37.3354 24.1393
1 38.4054 38.7836 26.6228
1 41.3442 37.0521 24.1543
1 41.2274 38.7518 26.5526
1 39.8848 36.4443 26.6032
1 43.0255 34.6405 24.0418
1 44.0727 37.0966 24.2342
1 44.1428 38.6762 26.5496
1 42.7241 36.0908 26.4985
1 45.7747 34.7283 24.1346
1 46.9233 37.2325 24.3196
1 46.9453 38.8274 26.6424
1 45.5441 36.1397 26.5665
1 48.4827 34.7017 24.4482
1 49.7052 37.2387 24.3859
1 49.7746 38.7989 26.693
1 48.4222 36.2681 26.7325
1 35.4781 42.0257 24.2448
1 35.3605 43.5611 26.6117
1 37.1149 39.8221 24.2364
1 38.2848 42.1667 24.2806
1 38.3237 43.8012 26.5997
1 36.9766 41.282 26.5686
1 39.8889 39.7065 24.3357
1 41.2302 42.1875 24.2885
1 41.0736 43.886 26.5955
1 39.7552 41.2511 26.5889
1 42.6654 39.5877 24.2497
1 43.9445 42.2601 24.2979
1 43.9721 43.8403 26.6339
1 42.7032 41.2304 26.619
1 45.4632 39.77 24.3633
1 46.8492 42.2468 24.3362
1 46.8887 43.9189 26.6937
1 45.4917 41.3686 26.6974
1 48.2987 39.7965 24.2832
1 49.736 42.3169 24.3479
1 49.6655 43.8873 26.7105
1 48.2942 41.3539 26.6606
1 32.5568 47.0031 24.2916
1 32.4506 48.4582 26.5736
1 33.962 44.51 24.217
1 35.1752 47.0755 24.2823
1 35.0662 48.6094 26.6119
1 33.8167 46.0125 26.5603
1 36.6685 44.5819 24.235
1 38.0607 47.1226 24.2451
1 38.0289 48.7285 26.6379
1 36.7207 46.192 26.6567
1 39.5993 44.6331 24.2038
1 40.9429 47.1147 24.3638
1 40.9557 48.8729 26.6818
1 39.5333 46.3438 26.6365
1 42.5155 44.7363 24.2911
1 43.8211 47.1978 24.329
1 43.8404 48.8584 26.7406
1 42.4698 46.366 26.717
1 45.3649 44.7702 24.2451
1 46.7007 47.2689 24.3878
1 46.8284 48.8661 26.7509
1 45.3555 46.399 26.8075
1 48.2142 44.7025 24.3964
1 49.7343 47.3553 24.3462
1 49.7945 49.0584 26.7327
1 48.2595 46.4976 26.6883
1 33.5807 49.5129 24.2107
1 36.589 49.594 24.3137
1 39.4975 49.5351 24.3454
1 42.3262 49.6699 24.3317
1 45.2769 49.7169 24.4937
1 48.172 49.7701 24.3302
1 45.2158 32.4022 28.474
1 47.9541 32.3286 28.8389
1 38.7147 37.2242 28.9969
1 41.4528 36.9917 28.7744
1 43.3572 34.4754 28.8154
1 44.3023 37.0664 28.8317
1 46.1288 34.7353 28.9392
1 47.1655 37.2146 29.0227
1 48.8687 34.804 29.0965
1 50.0034 37.2479 29.1084
1 35.6391 41.9835 29.0061
1 37.1234 39.6269 28.9731
1 38.3477 42.143 28.9614
1 39.9326 39.6673 28.8349
1 41.2106 42.259 28.8239
1 42.7641 39.5371 28.9183
1 44.0851 42.1674 28.9724
1 45.5583 39.6242 28.9318
1 46.9754 42.2067 28.9432
1 48.3845 39.8019 28.9585
1 49.7664 42.3211 29.0502
1 32.6195 46.9781 28.9267
1 34.0709 44.5306 28.892
1 35.1804 47.0231 28.8972
1 36.8301 44.5273 28.9679
1 38.0887 47.1497 28.9758
1 39.7181 44.6837 28.9071
1 41.0359 47.2117 28.9302
1 42.6226 44.7416 28.8912
1 43.9418 47.2324 29.096
1 45.4177 44.7161 29.0373
1 46.8447 47.2791 29.0795
1 48.3615 44.8593 29.0177
1 49.8075 47.2933 29.0718
1 33.4734 49.5604 28.893
1 36.4961 49.4977 28.9495
1 39.4531 49.5897 29.0441
1 42.4164 49.7014 29.0475
1 45.3062 49.7381 29.0766
1 48.3529 49.7193 29.0538
1 44.5786 33.6357 31.0356
1 47.321 33.5948 31.2262
1 50.1294 33.6615 31.3733
1 38.3812 38.5646 31.2742
1 41.2679 38.5619 31.0839
1 40.0089 36.2807 31.2305
1 44.0577 38.5891 31.2796
1 42.7897 35.9916 31.2453
1 47.0191 38.7373 31.3487
1 45.6736 36.1608 31.2788
1 49.8274 38.8066 31.3511
1 48.559 36.2296 31.535
1 35.4612 43.6476 31.2886
1 38.212 43.6711 31.2853
1 36.8059 41.1563 31.337
1 41.0571 43.7135 31.1408
1 39.5861 41.0579 31.2199
1 43.8723 43.802 31.2315
1 42.5269 41.1357 31.1451
1 46.7737 43.9133 31.3228
1 45.4876 41.2287 31.1928
1 49.7296 43.9902 31.3221
1 48.3469 41.3799 31.3172
1 32.3834 48.3865 31.279
1 35.0648 48.6907 31.2705
1 33.8423 46.0438 31.3061
1 37.9645 48.8113 31.2908
1 36.7012 46.1902 31.2053
1 40.9214 48.9025 31.2947
1 39.5483 46.3803 31.289
1 43.8542 48.8511 31.4165
1 42.3832 46.3348 31.2973
1 46.8027 48.8923 31.2963
1 45.3144 46.3487 31.3837
1 49.7881 48.9699 31.4212
1 48.2177 46.4187 31.3509
1 44.3511 33.6215 35.9133
1 47.6812 32.1905 33.458
1 47.1788 33.472 35.9131
1 50.327 32.0949 33.487
1 50.138 33.4446 35.9569
1 38.6215 37.0208 33.6215
1 38.3928 38.5384 35.8685
1 41.3674 36.7888 33.5405
1 41.3469 38.4965 35.8103
1 39.9405 36.2476 35.933
1 43.1505 34.4959 33.5172
1 44.2719 37.0034 33.6015
1 44.1791 38.5835 35.7676
1 42.8042 35.8827 35.8171
1 45.877 34.4996 33.5642
1 47.1565 37.0555 33.6158
1 46.9953 38.6596 35.8922
1 45.7655 36.0169 35.9556
1 48.7558 34.5378 33.7601
1 50.0662 37.1959 33.697
1 49.928 38.8169 35.9228
1 48.5476 36.24 35.8956
1 35.4909 42.0675 33.715
1 35.295 43.6265 35.9494
1 37.1125 39.576 33.5731
1 38.2719 42.0302 33.5466
1 38.1173 43.6291 35.821
1 36.8751 41.0646 35.8748
1 39.8993 39.4588 33.516
1 41.0406 41.9642 33.4509
1 40.9893 43.6099 35.7567
1 39.6755 41.0182 35.795
1 42.6679 39.5056 33.4954
1 44.0336 42.0864 33.4653
1 43.9579 43.7107 35.8368
1 42.5204 41.1929 35.7393
1 45.6354 39.5938 33.434
1 46.8762 42.1918 33.5393
1 46.831 43.841 35.8476
1 45.4628 41.2613 35.8185
1 48.494 39.5991 33.5879
1 49.772 42.2328 33.6679
1 49.7125 43.8836 35.8936
1 48.3479 41.2297 35.8619
1 32.5411 47.0237 33.5581
1 32.4904 48.4107 36.0159
1 33.8966 44.5903 33.5627
1 35.2693 46.9693 33.5673
1 35.1425 48.7093 35.9137
1 33.7636 46.0608 35.9074
1 36.7341 44.5686 33.5997
1 38.0906 47.0752 33.5783
1 38.0643 48.7232 35.932
1 36.6423 46.1121 35.87
1 39.6132 44.6019 33.5272
1 41.044 47.1877 33.5843
1 40.9409 48.7811 35.9128
1 39.57 46.1934 35.8195
1 42.418 44.5805 33.5224
1 43.8678 47.2146 33.61
1 43.8594 48.8329 35.8789
1 42.4465 46.1852 35.8932
1 45.2642 44.6732 33.5888
1 46.7146 47.268 33.6466
1 46.815 48.9407 35.893
1 45.3955 46.3739 35.9189
1 48.218 44.6774 33.5914
1 49.6647 47.262 33.6099
1 49.7256 48.9335 35.8689
1 48.2507 46.4335 35.9255
1 33.6026 49.4989 33.592
1 36.4839 49.49 33.5662
1 39.3914 49.6107 33.6174
1 42.3625 49.6367 33.6683
1 45.3076 49.7557 33.6057
1 48.1584 49.8093 33.5826
1 44.192 33.6566 40.5446
1 47.1793 32.1382 38.1411
1 46.9273 33.4247 40.5247
1 49.847 32.063 38.0348
1 49.912 33.5452 40.3236
1 38.5147 37.0951 38.1926
1 38.3315 38.5189 40.5733
1 41.4015 36.7522 38.1499
1 41.2877 38.534 40.5456
1 39.8148 36.2534 40.4258
1 42.9159 34.3875 38.1891
1 44.1343 36.9278 38.1178
1 44.0966 38.606 40.4582
1 42.6281 35.9392 40.5588
1 45.636 34.3687 38.1788
1 47.082 36.9947 38.2017
1 46.9617 38.7551 40.4335
1 45.453 36.0916 40.4034
1 48.4508 34.505 38.1386
1 49.9693 36.988 38.2434
1 49.8376 38.716 40.5451
1 48.3772 36.1326 40.4635
1 35.6181 41.944 38.2182
1 35.2918 43.4685 40.5328
1 37.1275 39.5308 38.2165
1 38.3795 41.9298 38.0905
1 38.1929 43.4783 40.5411
1 36.8289 40.98 40.4677
1 39.9862 39.3387 38.2094
1 41.2183 41.914 38.1732
1 41.0964 43.5836 40.448
1 39.7413 40.9411 40.5325
1 42.7162 39.4845 38.0797
1 44.0251 41.9722 38.1474
1 44.0751 43.7299 40.3946
1 42.7068 41.1315 40.5024
1 45.5468 39.4738 38.0806
1 46.9682 42.0832 38.1275
1 46.9928 43.7568 40.4774
1 45.5356 41.2543 40.4464
1 48.4345 39.5429 38.2345
1 49.8862 42.0985 38.1904
1 49.8972 43.8372 40.5076
1 48.3976 41.341 40.4555
1 32.6517 46.8536 38.3043
1 32.5559 48.4342 40.5309
1 34.048 44.4602 38.287
1 35.3185 46.9753 38.1535
1 35.2364 48.5164 40.5526
1 33.8123 45.8734 40.6251
1 36.7944 44.4686 38.2084
1 38.1363 46.9969 38.1547
1 38.0882 48.5842 40.5502
1 36.6191 45.9097 40.562
1 39.71 44.4408 38.1297
1 41.0221 47.0526 38.1637
1 41.0386 48.6556 40.4611
1 39.6181 46.0072 40.443
1 42.5075 44.4975 38.0882
1 43.9252 47.1023 38.1968
1 43.933 48.7826 40.4922
1 42.5532 46.2063 40.457
1 45.423 44.6084 38.1331
1 46.8807 47.2253 38.2179
1 46.8542 48.9291 40.4867
1 45.473 46.3227 40.4557
1 48.3706 44.6127 38.2135
1 49.8154 47.2372 38.2479
1 49.7214 48.9326 40.5631
1 48.4096 46.3858 40.5755
1 33.7141 49.4679 38.2356
1 36.6273 49.4901 38.2894
1 39.5317 49.5166 38.1701
1 42.4631 49.6142 38.1758
1 45.3733 49.6777 38.2098
1 48.2774 49.7607 38.1867
1 44.9971 32.3867 42.8901
1 47.7354 32.1728 42.9672
1 38.4823 36.9341 42.899
1 41.2333 36.75 42.8459
1 43.0679 34.439 42.9105
1 44.0671 36.9611 42.8018
1 45.8811 34.6957 42.8292
1 46.9949 37.2167 42.6526
1 48.7065 34.5369 42.6359
1 49.867 37.0967 42.7609
1 35.5031 41.859 42.7465
1 37.0079 39.3454 42.9421
1 38.2922 41.7803 42.8102
1 39.7901 39.2549 42.8969
1 41.1511 41.9342 42.8456
1 42.6303 39.4269 42.8412
1 44.1124 42.1403 42.7982
1 45.4632 39.6628 42.7645
1 46.9594 42.176 42.8545
1 48.4606 39.741 42.7529
1 49.8911 42.2408 42.8587
1 32.5414 46.9228 42.92
1 33.9975 44.3632 42.954
1 35.2296 46.9142 42.8523
1 36.7135 44.3261 42.8361
1 38.2016 46.8465 42.7957
1 39.6895 44.4338 42.7555
1 41.1159 47.0043 42.7591
1 42.5979 44.5204 42.7453
1 43.9973 47.1964 42.739
1 45.4586 44.6756 42.7456
1 46.9414 47.3679 42.8235
1 48.4623 44.7604 42.865
1 49.9258 47.3237 42.8346
1 33.7239 49.4147 42.7456
1 36.6835 49.413 42.8743
1 39.5293 49.4253 42.8208
1 42.4199 49.6401 42.698
1 45.2757 49.7848 42.8029
1 48.3635 49.8188 42.8398
1 44.2634 33.6277 45.2578
1 47.0272 33.5007 45.1705
1 49.7963 33.4028 44.9076
1 38.2348 38.4493 45.2386
1 41.2571 38.526 45.1338
1 39.8606 36.2659 45.1819
1 44.002 38.6316 45.0909
1 42.7567 35.9693 45.2059
1 46.9783 38.7537 45.0237
1 45.4989 36.1411 45.1638
1 49.8756 38.7574 45.0303
1 48.2818 36.1419 44.9493
1 35.3482 43.5471 45.1325
1 38.2577 43.5275 45.0402
1 36.7767 41.0174 45.1365
1 41.0753 43.6328 45.0473
1 39.556 40.9749 45.1924
1 43.9591 43.7567 45.046
1 42.5311 41.1778 45.0914
1 46.9051 43.8444 45.0618
1 45.4843 41.3338 45.0816
1 49.7902 43.9532 45.2024
1 48.4205 41.3088 45.0968
1 32.476 48.6509 45.0933
1 35.2116 48.6477 45.1403
1 33.9043 46.0804 45.1765
1 38.1613 48.6125 45.0847
1 36.7641 46.0658 45.1224
1 41.0987 48.7371 45.0826
1 39.6287 46.1127 45.0947
1 43.9028 48.8265 45.1055
1 42.5459 46.1929 45.0132
1 46.8123 48.9893 45.0761
1 45.4062 46.3782 45.0225
1 49.8358 49.0043 45.0949
1 48.329 46.4803 45.0835
1 44.12 33.7697 50.0381
1 44.6418 32.3883 47.6595
1 46.8501 33.6745 49.985
1 47.2751 32.2322 47.7943
1 49.6763 33.4873 49.7647
1 38.4218 37.065 47.5049
1 37.9773 38.7021 49.912
1 41.2869 36.8884 47.4807
1 41.1012 38.6773 49.8733
1 39.6522 36.4595 49.8142
1 43.0123 34.5035 47.593
1 44.0824 37.0682 47.4367
1 43.9742 38.7375 49.7239
1 42.5263 36.0737 49.8422
1 45.7827 34.6343 47.5481
1 46.949 37.1814 47.2847
1 46.9026 38.8596 49.5369
1 45.4469 36.2851 49.7937
1 48.5583 34.5641 47.3599
1 49.8987 37.1481 47.2873
1 49.7961 38.8787 49.5497
1 48.3283 36.3149 49.5806
1 35.4695 42.1004 47.4912
1 35.1762 43.7166 49.8763
1 36.9308 39.598 47.5607
1 38.1182 42.0281 47.4564
1 38.0785 43.6559 49.8243
1 36.523 41.2388 49.8791
1 39.7083 39.3464 47.5083
1 41.0083 41.9415 47.4138
1 41.0088 43.7488 49.736
1 39.4304 41.1383 49.7899
1 42.5107 39.4678 47.5035
1 43.913 42.0531 47.3746
1 43.9397 43.7492 49.6189
1 42.4076 41.3176 49.7867
1 45.3678 39.5944 47.2952
1 46.7786 42.1993 47.4017
1 46.8236 43.8569 49.6807
1 45.3549 41.2971 49.7646
1 48.3629 39.6906 47.3365
1 49.7803 42.2272 47.3896
1 49.7975 43.984 49.6811
1 48.3228 41.4102 49.5877
1 32.6694 47.2616 47.4297
1 32.5011 48.848 49.7236
1 33.9876 44.6882 47.5907
1 35.3919 47.1225 47.4521
1 35.1391 48.7581 49.7651
1 33.7269 46.3533 49.8034
1 36.7486 44.4748 47.4243
1 38.1655 46.9889 47.4142
1 38.1658 48.6857 49.8209
1 36.5417 46.1714 49.7716
1 39.5235 44.4907 47.3965
1 40.9987 47.0294 47.3488
1 41.0055 48.7404 49.6918
1 39.5107 46.1924 49.6757
1 42.3532 44.5154 47.3824
1 43.9291 47.0387 47.3673
1 43.9537 48.779 49.6422
1 42.4844 46.2256 49.6617
1 45.2896 44.5944 47.3057
1 46.7939 47.2028 47.3735
1 46.8519 48.9456 49.7343
1 45.4544 46.3601 49.5977
1 48.2343 44.7026 47.3724
1 49.7289 47.243 47.3947
1 49.7693 48.9862 49.6815
1 48.3278 46.5343 49.7125
1 33.8071 49.6994 47.3928
1 36.7982 49.5533 47.3986
1 39.6247 49.5428 47.4229
1 42.4646 49.6757 47.3638
1 45.3813 49.7127 47.4236
1 48.3185 49.7796 47.3833
1 44.1566 33.636 54.6063
1 45.4701 32.4331 52.2488
1 46.8591 33.4635 54.4872
1 48.1767 32.2788 52.1035
1 49.7206 33.5973 54.1027
1 38.3658 37.1089 52.1659
1 37.9977 38.842 54.4561
1 41.1098 36.8966 52.2161
1 41.0251 38.8064 54.4047
1 39.5761 36.5549 54.4554
1 43.0458 34.5777 52.3418
1 43.929 37.154 52.0588
1 43.8868 38.7997 54.4581
1 42.4259 36.2124 54.506
1 45.7519 34.9138 52.2977
1 46.8925 37.3437 51.9022
1 46.7168 38.8724 54.2258
1 45.2199 36.2743 54.4872
1 48.6228 34.8113 51.9803
1 49.7378 37.3967 51.8345
1 49.6231 39.0187 54.1917
1 48.0047 36.3485 54.1234
1 35.2167 42.1999 52.135
1 35.0916 43.8106 54.4241
1 36.7091 39.6374 52.1601
1 38.039 42.0231 52.1807
1 37.933 43.8225 54.4442
1 36.5679 41.311 54.4119
1 39.5696 39.5179 52.1471
1 40.9199 42.1168 52.061
1 40.8524 43.7528 54.3747
1 39.4362 41.2965 54.4083
1 42.4717 39.6503 52.1024
1 43.8584 42.2115 52.0665
1 43.8095 43.8292 54.347
1 42.3787 41.3186 54.4355
1 45.3451 39.7146 52.0053
1 46.7451 42.2587 51.9394
1 46.6068 43.9749 54.2674
1 45.3488 41.3092 54.3757
1 48.2185 39.8793 51.885
1 49.6959 42.3206 51.926
1 49.5557 43.9958 54.2658
1 48.1486 41.5545 54.219
1 32.5463 47.4001 52.1919
1 32.5968 48.8238 54.5305
1 33.8128 44.7628 52.1132
1 35.1632 47.2292 52.1363
1 35.2928 48.9456 54.4285
1 33.7895 46.4503 54.4666
1 36.5301 44.546 52.2032
1 37.9702 47.1111 52.1372
1 38.1507 48.9517 54.3291
1 36.6704 46.3355 54.4287
1 39.4127 44.6153 52.0987
1 40.95 47.1279 51.9753
1 41.0276 48.912 54.28
1 39.5151 46.3753 54.3741
1 42.3346 44.653 52.0495
1 43.8557 47.2224 51.9798
1 43.878 48.9477 54.2911
1 42.3521 46.3423 54.2476
1 45.2513 44.7683 51.9268
1 46.7137 47.3356 51.9524
1 46.7355 48.9983 54.337
1 45.2219 46.4367 54.3066
1 48.2267 44.7948 51.9067
1 49.6806 47.3373 52.001
1 49.5883 48.989 54.2386
1 48.0657 46.4973 54.1944
1 33.7637 49.8147 52.1179
1 36.6734 49.7365 52.095
1 39.5967 49.6714 51.9944
1 42.4687 49.7933 51.942
1 45.3253 49.7927 52.0206
1 48.1834 49.7813 51.9574
1 43.875 33.857 59.0601
1 44.9835 32.4941 56.9953
1 46.5419 33.5822 58.9779
1 47.6832 32.306 56.9733
1 49.4326 33.7404 58.8295
1 38.2661 37.3511 56.7723
1 38.0188 38.827 58.9705
1 41.0309 37.2095 56.7846
1 40.8967 38.814 59.0962
1 39.4704 36.5252 58.9654
1 42.8586 34.6609 56.7821
1 43.826 37.2314 56.851
1 43.77 38.8469 59.1562
1 42.281 36.3116 59.1112
1 45.6442 34.915 56.7445
1 46.7939 37.4202 56.6379
1 46.6506 38.8745 58.9896
1 45.1995 36.3653 59.1179
1 48.3811 34.7795 56.3784
1 49.5342 37.3423 56.5067
1 49.4943 38.9787 58.8745
1 47.9685 36.2537 58.8609
1 35.2804 42.3028 56.8039
1 35.0747 43.807 59.0673
1 36.8007 39.8558 56.6998
1 38.0791 42.3424 56.7674
1 37.9169 43.8327 59.0659
1 36.5121 41.2883 59.061
1 39.546 39.724 56.7489
1 40.8178 42.2951 56.7723
1 40.7706 43.9562 59.0596
1 39.4419 41.331 59.1237
1 42.355 39.7281 56.759
1 43.7488 42.2535 56.7569
1 43.6785 43.9219 58.9648
1 42.2525 41.2908 59.077
1 45.1786 39.8051 56.7028
1 46.6902 42.3851 56.6558
1 46.6475 44.0084 58.9228
1 45.173 41.4498 58.9998
1 47.9875 39.8506 56.527
1 49.5537 42.3466 56.5313
1 49.4342 44.0173 58.8769
1 48.0099 41.4124 58.8814
1 32.4604 47.232 56.8111
1 32.3207 48.9394 59.0587
1 33.881 44.8009 56.7519
1 35.2196 47.3372 56.7169
1 35.0261 49.1358 59.1195
1 33.6876 46.4316 59.0102
1 36.566 44.7943 56.7537
1 38.0851 47.3752 56.6105
1 37.8969 48.9175 59.0374
1 36.4718 46.4236 59.0903
1 39.4725 44.8307 56.7597
1 40.9264 47.3259 56.6607
1 40.8002 48.9038 59.0511
1 39.3005 46.4331 58.9841
1 42.3236 44.7259 56.6651
1 43.6422 47.2503 56.5691
1 43.6691 48.8603 58.9604
1 42.1665 46.4368 59.0002
1 45.2092 44.7503 56.634
1 46.5365 47.4141 56.5962
1 46.5086 49.0164 58.8884
1 45.0443 46.4426 58.899
1 48.0319 44.9249 56.5657
1 49.3865 47.483 56.4959
1 49.4535 49.199 58.778
1 47.9843 46.557 58.8929
1 33.6166 49.8256 56.8308
1 36.5994 49.8341 56.7213
1 39.4744 49.8932 56.7051
1 42.2899 49.8664 56.6882
1 45.0899 49.85 56.6848
1 48.0381 50.0226 56.5486
1 43.7668 33.7569 63.5914
1 46.882 32.2865 61.277
1 46.6995 33.7382 63.5617
1 49.5545 32.3809 61.1779
1 49.5196 33.7132 63.5257
1 38.17 37.3471 61.271
1 37.7864 38.8265 63.6907
1 40.814 37.1824 61.4832
1 40.7268 38.7675 63.7506
1 39.2942 36.5056 63.6953
1 42.5114 34.663 61.3313
1 43.6134 37.107 61.3921
1 43.6261 38.708 63.6917
1 42.1552 36.1567 63.7002
1 45.2128 34.5539 61.3449
1 46.5301 37.21 61.3032
1 46.5701 38.8138 63.5892
1 45.0906 36.1705 63.5929
1 48.0161 34.733 61.2316
1 49.4366 37.3502 61.0665
1 49.4548 38.8497 63.4791
1 48.0156 36.3662 63.48
1 35.1994 42.296 61.2994
1 34.8961 43.8557 63.6047
1 36.6457 39.7815 61.3766
1 37.9203 42.2828 61.3211
1 37.8221 43.8417 63.7208
1 36.3632 41.39 63.6426
1 39.3405 39.7159 61.3922
1 40.7612 42.2542 61.3921
1 40.7209 43.872 63.6444
1 39.1522 41.2831 63.6984
1 42.2998 39.6854 61.4687
1 43.6112 42.2452 61.3679
1 43.5562 43.8735 63.5719
1 42.0988 41.3056 63.7241
1 45.2099 39.7943 61.3197
1 46.5305 42.2269 61.3109
1 46.5104 43.8582 63.585
1 44.99 41.3123 63.6207
1 48.0381 39.8137 61.1863
1 49.3929 42.328 61.1756
1 49.472 43.9656 63.4656
1 47.9642 41.3738 63.6135
1 32.4264 47.4087 61.2127
1 32.2898 48.8713 63.5875
1 33.7924 44.8252 61.274
1 35.0659 47.3446 61.3919
1 34.9257 49.0096 63.7427
1 33.5655 46.3662 63.5919
1 36.4898 44.7653 61.3772
1 37.9397 47.3499 61.4173
1 37.8925 49.0894 63.6798
1 36.4365 46.491 63.6239
1 39.318 44.8154 61.3798
1 40.797 47.2731 61.305
1 40.7444 49.0136 63.64
1 39.3556 46.4476 63.7494
1 42.2227 44.8069 61.2544
1 43.6649 47.3173 61.3926
1 43.7619 49.0678 63.6173
1 42.1772 46.4712 63.6217
1 45.0587 44.7447 61.2643
1 46.4593 47.3771 61.2073
1 46.6706 49.0655 63.4575
1 45.1605 46.4324 63.5502
1 47.955 44.8436 61.2533
1 49.4248 47.4996 61.109
1 49.5668 49.131 63.4039
1 48.0026 46.5336 63.4057
1 33.5346 50.0627 61.3528
1 36.3674 49.9054 61.3677
1 39.3896 49.7616 61.3444
1 42.335 49.7747 61.3357
1 45.069 49.9998 61.2028
1 47.9189 50.0008 61.0933
1 43.9343 33.7878 68.3403
1 47.055 32.1414 65.9611
1 46.6613 33.6296 68.1437
1 49.5901 32.1638 65.6167
1 49.5382 33.561 67.9673
1 38.0178 37.2603 65.9867
1 37.6902 38.8567 68.2673
1 40.739 36.8103 66.0861
1 40.7597 38.6002 68.3071
1 39.1403 36.5104 68.4376
1 42.5292 34.5194 65.8919
1 43.6089 36.9169 66.0074
1 43.6593 38.6331 68.2063
1 42.0753 35.9415 68.3472
1 45.1759 34.3738 65.8484
1 46.5381 37.0083 65.838
1 46.5005 38.626 68.1841
1 45.0645 36.1921 68.2179
1 48.0654 34.5658 65.8033
1 49.447 37.0862 65.8197
1 49.421 38.6631 68.1238
1 47.999 36.121 68.1799
1 35.1316 42.243 65.8854
1 35.0125 43.7636 68.239
1 36.4687 39.8296 65.9679
1 37.9272 42.1525 66.0029
1 37.9409 43.7636 68.2847
1 36.4664 41.3324 68.2482
1 39.3312 39.5889 66.067
1 40.7561 42.159 65.9764
1 40.8266 43.6945 68.1574
1 39.3546 41.1964 68.3616
1 42.114 39.5002 66.0259
1 43.6684 42.1345 65.9508
1 43.7755 43.8378 68.1559
1 42.306 41.1012 68.2297
1 45.0714 39.5614 65.9444
1 46.511 42.1029 65.8701
1 46.5966 43.8392 68.07
1 45.1536 41.1942 68.1488
1 48.0018 39.5836 65.8742
1 49.4051 42.2084 65.7219
1 49.4311 43.8289 68.0882
1 48.049 41.2598 68.0789
1 32.3583 47.257 65.8663
1 32.3833 48.5598 68.2471
1 33.6661 44.7769 65.8751
1 35.0161 47.2269 65.9333
1 35.096 48.7165 68.2895
1 33.5712 46.0833 68.2678
1 36.4687 44.6993 65.914
1 37.9535 47.2631 65.9697
1 37.9396 48.8167 68.2843
1 36.4273 46.1911 68.2411
1 39.3809 44.7664 65.9622
1 40.9246 47.3126 65.995
1 40.8145 48.872 68.2622
1 39.482 46.3218 68.332
1 42.2645 44.7735 65.8867
1 43.7544 47.309 65.8473
1 43.7631 48.8953 68.1775
1 42.4072 46.393 68.1986
1 45.1195 44.6912 65.8587
1 46.619 47.3452 65.7548
1 46.7346 48.8994 68.0446
1 45.2642 46.4537 68.0978
1 47.9583 44.7888 65.7581
1 49.4424 47.3987 65.6199
1 49.7904 48.999 68.0062
1 48.1858 46.4493 67.9829
1 33.4946 49.7357 65.9933
1 36.461 49.7605 66.0806
1 39.3161 49.7631 65.9728
1 42.3405 49.859 65.9571
1 45.2932 49.8523 65.8219
1 48.1704 49.9345 65.7489
1 43.9188 33.7492 73.0389
1 44.4665 32.4399 70.7499
1 46.7164 33.6737 72.9187
1 47.0701 32.2997 70.5677
1 49.6337 33.7721 72.8363
1 38.1444 37.3162 70.7683
1 37.9973 38.848 73.1065
1 40.8139 36.8625 70.677
1 40.9583 38.7052 72.9921
1 39.3948 36.4864 73.0425
1 42.7016 34.5442 70.6597
1 43.6968 37.0377 70.6394
1 43.7884 38.718 72.9124
1 42.2976 36.0944 72.982
1 45.5951 34.7175 70.522
1 46.7404 37.1976 70.5371
1 46.7619 38.7475 72.7551
1 45.2418 36.1614 72.834
1 48.405 34.6072 70.3957
1 49.6203 37.111 70.4669
1 49.5883 38.9434 72.7744
1 48.1621 36.2005 72.7768
1 35.285 42.1251 70.7089
1 35.1387 43.7629 73.041
1 36.8075 39.7531 70.7281
1 38.0708 42.0496 70.5914
1 38.0156 43.7253 72.9014
1 36.6529 41.2169 73.0173
1 39.5915 39.4932 70.6018
1 40.9194 42.126 70.4529
1 40.9566 43.8123 72.7208
1 39.5167 41.31 72.8654
1 42.3928 39.4507 70.5728
1 43.7179 42.1177 70.4541
1 43.8493 43.814 72.7529
1 42.3876 41.3522 72.787
1 45.1985 39.6636 70.6107
1 46.6191 42.2226 70.3983
1 46.7077 43.8397 72.7376
1 45.2496 41.3492 72.7913
1 48.0452 39.6773 70.4038
1 49.4611 42.1837 70.3204
1 49.6258 43.8945 72.6547
1 48.0613 41.4129 72.7829
1 32.462 47.0374 70.6171
1 32.4502 48.6512 72.8701
1 33.7399 44.5473 70.6508
1 35.0197 47.0272 70.5052
1 35.0952 48.6903 72.7927
1 33.7286 46.1268 72.9
1 36.5 44.5195 70.6425
1 37.8195 47.1582 70.5144
1 37.9646 48.8427 72.8086
1 36.5322 46.24 72.8879
1 39.4011 44.6855 70.5084
1 40.8548 47.1419 70.5744
1 40.9176 48.8983 72.795
1 39.4326 46.3833 72.7953
1 42.4244 44.7009 70.4711
1 43.7966 47.2681 70.4736
1 43.9576 48.9463 72.7565
1 42.4619 46.383 72.7031
1 45.1973 44.7054 70.4285
1 46.7565 47.202 70.4113
1 46.7566 48.9238 72.6821
1 45.3281 46.415 72.7397
1 48.1261 44.8047 70.3369
1 49.6692 47.3089 70.3216
1 49.6185 48.9292 72.5811
1 48.2066 46.3317 72.6887
1 33.4853 49.5824 70.5377
1 36.4499 49.7825 70.5601
1 39.3888 49.5995 70.5021
1 42.3186 49.683 70.5379
1 45.2766 49.7298 70.4365
1 48.1718 49.7704 70.3238
1 43.9825 33.9683 77.7484
1 44.5179 32.5083 75.4941
1 46.7648 33.8865 77.6449
1 47.0984 32.4755 75.2916
1 49.6599 34.0006 77.6094
1 38.3029 37.4173 75.5656
1 38.0599 38.9917 77.7589
1 40.9681 37.001 75.3997
1 41.029 38.8845 77.6376
1 39.4857 36.5455 77.7057
1 42.743 34.7374 75.3357
1 43.8381 37.2167 75.2575
1 43.7764 38.8862 77.574
1 42.3589 36.3185 77.5983
1 45.4798 34.8285 75.3339
1 46.7617 37.3244 75.0971
1 46.6879 39.0026 77.5227
1 45.313 36.3895 77.6457
1 48.3923 34.8459 75.2264
1 49.6323 37.3544 74.9236
1 49.591 38.9016 77.3819
1 48.1101 36.4647 77.4274
1 35.2209 42.3227 75.3103
1 35.2929 44.0644 77.6361
1 36.7339 39.8139 75.4439
1 38.0078 42.2283 75.296
1 38.1956 44.0043 77.5087
1 36.5809 41.5446 77.6285