5538
Atoms. Timestep: 10000
1 42.2818 36.1623 5.07634
1 46.7332 35.4796 7.40953
1 45.1998 36.1954 5.0978
1 48.3589 33.4668 7.18768
1 49.8618 33.9349 4.97219
1 36.5752 38.0912 7.50682
1 35.4152 38.9951 5.24643
1 39.4586 37.9043 7.43597
1 39.4625 41.2358 5.09513
1 37.9504 38.6957 5.14057
1 41.1401 35.6722 7.44201
1 42.3695 38.035 7.38341
1 42.2496 41.1265 5.11454
1 40.8003 38.5217 5.05884
1 43.8357 35.4876 7.35702
1 45.2025 37.8953 7.38231
1 45.1279 41.3208 5.16924
1 43.7796 38.6683 4.99455
1 48.1485 36.0813 5.15817
1 49.5624 40.6744 7.45336
1 49.5628 38.8143 5.19764
1 46.6839 38.7241 5.11837
1 33.6792 43.0297 7.476
1 32.4812 43.9693 5.15537
1 35.1441 40.4587 7.50893
1 36.5 42.9059 7.46568
1 35.1499 43.7382 5.13797
1 33.8386 41.356 5.18905
1 37.9421 40.4285 7.39633
1 39.3692 42.9192 7.46706
1 37.9497 43.8073 5.09431
1 36.6541 41.2658 5.05951
1 40.8072 40.3952 7.37009
1 42.3468 42.902 7.30055
1 42.3241 46.3547 5.09263
1 40.8164 43.8477 5.13043
1 43.8111 40.5151 7.30058
1 45.2489 43.1097 7.54335
1 46.6001 43.9362 5.23829
1 43.7791 43.8969 5.1705
1 46.6507 40.5318 7.41381
1 50.9495 43.1431 7.51958
1 49.4603 44.0084 5.10204
1 48.0633 41.4209 5.18243
1 31.1503 48.0659 7.49657
1 32.2727 48.8659 5.01026
1 32.236 45.5003 7.48999
1 33.7615 48.0131 7.3086
1 35.1152 48.968 4.97255
1 31.1447 46.512 5.21985
1 35.0256 45.3951 7.37314
1 36.5529 48.0166 7.34662
1 38.0012 48.92 4.89899
1 33.6848 46.3938 4.98914
1 37.8863 45.4276 7.39479
1 39.3873 48.0079 7.30208
1 40.9533 48.9053 5.1031
1 36.4964 46.4493 5.03003
1 40.8277 45.4845 7.41761
1 42.244 48.1159 7.41661
1 43.6011 50.6199 7.50384
1 39.4269 46.3058 5.07255
1 43.7044 45.6204 7.42882
1 45.0747 48.0893 7.47614
1 47.9001 48.0856 7.46981
1 43.7734 49.0138 5.15842
1 48.0733 43.1331 7.51244
1 49.4137 45.6242 7.40338
1 50.8333 48.1514 7.52651
1 46.5127 45.6305 7.4805
1 32.2657 50.472 7.32494
1 35.0172 50.5466 7.42143
1 37.8724 50.4998 7.35574
1 40.7224 50.6177 7.37498
1 46.5191 50.5208 7.36096
1 49.4064 50.6257 7.34516
1 43.9105 33.9968 11.7687
1 48.0379 38.0233 7.48109
1 46.8867 34.0481 11.7933
1 49.7475 35.6349 7.35441
1 49.7373 33.9805 11.9209
1 38.1036 37.3357 9.78286
1 37.9754 38.8419 12.1972
1 41.0123 37.0121 9.81136
1 40.8855 38.8042 12.0128
1 39.4237 36.4925 12.0736
1 42.4011 34.7043 9.58083
1 43.8389 36.9779 9.74333
1 43.7373 38.763 12.0081
1 42.338 36.0929 12.1191
1 45.306 34.5856 9.59311
1 46.6512 37.1226 9.68967
1 46.6799 38.837 12.0078
1 45.2536 36.2173 12.032
1 48.3437 34.7546 9.58278
1 49.5523 37.2933 9.78138
1 49.5927 38.9295 12.0589
1 48.2253 36.3553 12.0583
1 35.1569 42.0805 9.82424
1 35.0164 43.7812 12.138
1 36.5606 39.5351 9.86327
1 37.9005 42.0614 9.8373
1 37.8364 43.6685 12.1856
1 36.4013 41.1434 12.1246
1 39.3842 39.6739 9.68109
1 40.8688 42.1843 9.71765
1 40.7654 43.7831 12.069
1 39.4106 41.3124 12.0842
1 42.3067 39.6379 9.71899
1 43.7384 42.0987 9.74213
1 43.5701 43.7361 12.1293
1 42.1883 41.3439 12.0679
1 45.2625 39.6409 9.66949
1 46.6652 42.1462 9.84156
1 46.5653 43.8878 12.2078
1 45.0801 41.2455 12.0399
1 48.0445 39.7197 9.72629
1 49.5013 42.2308 9.85685
1 49.4976 43.9551 12.1317
1 48.0083 41.3176 12.1184
1 32.2907 47.1944 9.73368
1 32.3265 48.6261 12.0835
1 33.7213 44.6815 9.80063
1 35.0525 47.0633 9.6945
1 34.9883 48.7512 12.0313
1 33.6732 46.2561 12.1355
1 36.5181 44.5896 9.79515
1 37.9004 47.0891 9.66166
1 37.872 48.8118 12.0193
1 36.4325 46.2027 12.058
1 39.4079 44.6599 9.72227
1 40.8146 47.1442 9.72519
1 40.6546 48.7616 12.0761
1 39.2302 46.2553 12.0359
1 42.3219 44.6996 9.64031
1 43.5405 47.2472 9.81851
1 43.6225 48.8577 12.0849
1 42.2559 46.2956 12.0026
1 45.0891 44.699 9.87539
1 46.4957 47.2972 9.76264
1 46.5573 48.9998 12.0163
1 45.1356 46.3365 12.0596
1 47.8827 44.7557 9.87562
1 49.3683 47.2317 9.73791
1 49.4444 48.8799 12.0673
1 47.9492 46.4269 12.1472
1 33.4472 49.5648 9.64083
1 36.4333 49.5874 9.69196
1 39.316 49.6479 9.64681
1 42.1392 49.6483 9.75156
1 45.1564 49.7607 9.67586
1 48.1733 49.8003 9.64393
1 43.951 33.983 16.753
1 50.2028 32.5864 14.1995
1 46.8376 34.0641 16.6057
1 52.7993 32.5656 14.3914
1 49.7473 33.9329 16.5974
1 38.3127 37.3189 14.461
1 38.0262 38.7282 16.7745
1 41.0212 36.956 14.4254
1 40.9648 38.7374 16.7209
1 39.5391 36.4559 16.7942
1 42.8533 34.6511 14.3286
1 43.9093 37.0778 14.3684
1 43.8689 38.7876 16.6308
1 42.371 36.2025 16.7696
1 45.4839 34.6818 14.2951
1 46.8135 37.155 14.36
1 46.8257 38.9146 16.7791
1 45.3403 36.4721 16.6755
1 48.3257 34.5337 14.3303
1 49.6401 37.3022 14.3329
1 49.6617 38.8775 16.7706
1 48.214 36.4162 16.7129
1 35.0719 42.0482 14.372
1 35.2388 43.7034 16.7647
1 36.6213 39.5855 14.4206
1 37.9482 42.0023 14.4173
1 38.0449 43.6273 16.7651
1 36.4563 41.1736 16.7748
1 39.6178 39.6193 14.3932
1 40.8486 42.1781 14.4431
1 40.9144 43.7201 16.7875
1 39.3539 41.1441 16.7538
1 42.3763 39.5353 14.2897
1 43.7648 42.1096 14.4652
1 43.8028 43.8123 16.8478
1 42.2328 41.2542 16.6391
1 45.2379 39.6314 14.2495
1 46.622 42.1194 14.4902
1 46.6616 43.8749 16.774
1 45.2367 41.3 16.7247
1 48.1533 39.648 14.3469
1 49.4652 42.3227 14.4139
1 49.5527 43.965 16.7614
1 48.2333 41.4876 16.7483
1 32.4788 47.0917 14.5329
1 32.3489 48.5708 16.7887
1 33.6836 44.4638 14.5192
1 35.0322 46.9601 14.4159
1 34.9549 48.7373 16.7383
1 33.6951 46.1291 16.7636
1 36.5364 44.553 14.3913
1 38.0173 47.087 14.4162
1 37.8854 48.7639 16.6997
1 36.6878 46.1832 16.737
1 39.3684 44.5692 14.3813
1 40.8602 47.0659 14.4174
1 40.8017 48.7295 16.8016
1 39.4972 46.1396 16.6977
1 42.217 44.6161 14.4193
1 43.6029 47.2188 14.3666
1 43.7462 48.9067 16.7976
1 42.3648 46.3583 16.7118
1 45.114 44.8073 14.3752
1 46.5714 47.2774 14.4626
1 46.6376 48.8195 16.7654
1 45.2027 46.3753 16.8198
1 47.9844 44.7393 14.5342
1 49.4168 47.1404 14.4839
1 49.4926 48.9433 16.7424
1 48.1085 46.3819 16.868
1 33.4557 49.662 14.3051
1 36.3877 49.5603 14.3918
1 39.3261 49.5887 14.3974
1 42.2013 49.6544 14.4548
1 45.1117 49.7851 14.4294
1 48.0213 49.7652 14.2833
1 44.1668 33.8207 21.3327
1 44.3267 32.5345 18.9023
1 47.042 33.8511 21.239
1 46.9594 32.43 18.8068
1 49.8102 33.9876 21.3156
1 38.4665 37.3016 19.2492
1 38.0351 38.9051 21.4802
1 40.9523 36.9742 19.1895
1 40.9972 38.8291 21.4747
1 39.6978 36.5286 21.5673
1 42.7006 34.7179 19.1536
1 43.8683 37.1089 19.0448
1 43.9616 38.844 21.4314
1 42.5548 36.2185 21.4223
1 45.5376 34.8066 19.033
1 46.826 37.2725 19.1337
1 46.7415 38.9955 21.438
1 45.3687 36.3882 21.4533
1 48.3585 34.8193 18.9759
1 49.6989 37.2975 19.0558
1 49.6474 38.8898 21.4899
1 48.1976 36.3922 21.3975
1 35.4353 42.0588 19.0785
1 35.1753 43.774 21.4329
1 36.9059 39.6507 19.1548
1 38.2105 42.1713 19.0987
1 38.0023 43.7943 21.5085
1 36.6275 41.2842 21.4429
1 39.6941 39.6666 19.045
1 40.9906 42.141 19.1003
1 40.9864 43.9137 21.4599
1 39.458 41.324 21.491
1 42.4648 39.566 19.1077
1 43.8357 42.1039 19.0547
1 43.7814 43.8945 21.4046
1 42.3926 41.3847 21.4132
1 45.3628 39.6813 19.0745
1 46.7337 42.1601 19.0701
1 46.6786 43.913 21.4122
1 45.2851 41.3921 21.3993
1 48.2909 39.7954 19.1277
1 49.6648 42.2036 19.2151
1 49.6656 43.9169 21.4849
1 48.2076 41.398 21.4285
1 32.5763 47.0692 19.075
1 32.4102 48.5842 21.4815
1 33.8788 44.6551 19.1127
1 35.225 47.0986 19.0446
1 35.1634 48.9263 21.301
1 33.7842 46.2715 21.4784
1 36.7106 44.6512 19.1422
1 38.0532 47.2639 19.1565
1 38.102 48.883 21.3836
1 36.6673 46.3486 21.4321
1 39.4828 44.5853 19.1121
1 40.8609 47.0577 19.0325
1 40.9431 48.7946 21.4005
1 39.4657 46.2295 21.4437
1 42.3288 44.7223 19.0544
1 43.7663 47.202 19.0819
1 43.831 48.968 21.4117
1 42.4284 46.4005 21.37
1 45.2475 44.6538 19.1257
1 46.6738 47.2463 19.1089
1 46.6781 48.9765 21.373
1 45.3027 46.442 21.4566
1 48.108 44.6586 19.1084
1 49.6183 47.3056 19.1077
1 49.6205 48.9651 21.3316
1 48.1367 46.3906 21.4104
1 33.5254 49.6267 19.0735
1 36.6225 49.6348 18.9813
1 39.4438 49.6885 19.0851
1 42.3664 49.7775 19.0052
1 45.1899 49.6986 19.0196
1 48.205 49.758 18.9117
1 44.1146 33.8476 25.9482
1 44.4528 32.4715 23.6681
1 46.93 33.8396 25.9523
1 47.0649 32.4391 23.5051
1 49.8525 33.7693 26.0725
1 38.469 37.3143 23.976
1 38.083 38.8806 26.2114
1 41.1487 37.0477 23.8199
1 41.0631 38.9348 26.0683
1 39.6835 36.6221 26.2073
1 42.7853 34.6675 23.6968
1 43.9562 37.2546 23.7597
1 43.902 38.7448 26.086
1 42.6004 36.244 26.0934
1 45.6048 34.7448 23.6649
1 46.8593 37.2482 23.8147
1 46.7806 38.9299 26.0805
1 45.4257 36.2796 26.0688
1 48.512 34.8474 23.7635
1 49.7924 37.342 23.7846
1 49.6811 39 26.1251
1 48.1972 36.3491 26.0883
1 35.3515 42.2729 23.6972
1 35.2137 43.8836 26.0241
1 36.8652 39.6637 23.8551
1 38.0853 42.2136 23.7859
1 38.0494 43.8624 26.0977
1 36.6832 41.3761 26.0749
1 39.5272 39.6935 23.8377
1 40.9583 42.2148 23.8021
1 40.9947 43.9983 25.9984
1 39.5134 41.4616 26.0913
1 42.4934 39.7704 23.7943
1 43.942 42.3249 23.7642
1 43.9367 43.8855 26.1171
1 42.4882 41.3969 26.0313
1 45.3485 39.7993 23.7786
1 46.8175 42.3123 23.7619
1 46.6872 43.8591 26.1388
1 45.3547 41.3278 26.0311
1 48.2612 39.7697 23.7919
1 49.6918 42.2659 23.7958
1 49.7439 43.9276 26.1101
1 48.3519 41.4304 26.0501
1 32.3781 47.2773 23.8519
1 32.5605 48.9349 26.1671
1 33.9069 44.8236 23.7371
1 35.1418 47.3393 23.6374
1 35.2514 49.0603 25.9695
1 33.7531 46.4831 26.0934
1 36.6452 44.7559 23.7992
1 38.1244 47.2519 23.659
1 38.1659 48.8994 26.061
1 36.6047 46.4737 26.0377
1 39.5107 44.7616 23.8323
1 41.0208 47.2305 23.8144
1 41.0188 48.9271 26.0576
1 39.496 46.395 26.1169
1 42.4472 44.7249 23.7061
1 43.8258 47.2772 23.7998
1 43.8966 48.887 26.0879
1 42.4778 46.369 26.0786
1 45.3996 44.8069 23.7448
1 46.7285 47.3663 23.7642
1 46.7147 48.8234 26.0494
1 45.345 46.3799 26.0765
1 48.2186 44.7772 23.7995
1 49.6458 47.2047 23.7324
1 49.6538 48.9169 26.0339
1 48.2634 46.4156 26.1079
1 33.6206 49.809 23.7573
1 36.6471 49.7448 23.6699
1 39.5153 49.8009 23.6419
1 42.3557 49.7671 23.6892
1 45.2806 49.7244 23.7654
1 48.2462 49.8952 23.7256
1 45.0361 32.642 28.2372
1 47.7257 32.5608 28.3265
1 38.4847 37.4194 28.6204
1 41.2398 37.1358 28.4484
1 43.2015 34.6623 28.4629
1 44.1667 37.2464 28.4617
1 45.9006 34.9096 28.3765
1 47.0474 37.463 28.4327
1 48.7754 34.9693 28.4273
1 49.9833 37.4787 28.4312
1 35.3282 42.3305 28.4417
1 36.9689 39.8672 28.537
1 38.13 42.2724 28.5256
1 39.7923 39.6798 28.4884
1 41.1095 42.1632 28.3575
1 42.5733 39.6838 28.3675
1 43.9454 42.2411 28.3928
1 45.4511 39.807 28.3785
1 46.8273 42.3142 28.4199
1 48.3206 39.9223 28.5292
1 49.7269 42.3307 28.4957
1 32.5396 47.406 28.4012
1 33.9203 44.8494 28.3439
1 35.2204 47.3084 28.3815
1 36.6708 44.7593 28.2962
1 38.1192 47.2547 28.41
1 39.4962 44.702 28.3746
1 40.9677 47.2398 28.3652
1 42.4021 44.7502 28.3498
1 43.8659 47.2994 28.356
1 45.3842 44.7827 28.4538
1 46.7417 47.2083 28.4009
1 48.174 44.7362 28.3198
1 49.5499 47.2653 28.5144
1 33.9197 49.8616 28.4426
1 36.7387 49.7187 28.347
1 39.5887 49.8157 28.3785
1 42.4708 49.7868 28.4208
1 45.3112 49.7914 28.3983
1 48.1093 49.7726 28.3962
1 44.4739 33.9881 30.7301
1 47.2091 34.0243 30.7397
1 49.9563 33.9675 30.8661
1 38.2598 39.0766 30.8271
1 41.2009 39.0298 30.7904
1 39.7511 36.7011 30.8751
1 44.0315 38.975 30.7839
1 42.7373 36.4355 30.6383
1 46.9438 38.95 30.7853
1 45.6085 36.4895 30.769
1 49.8356 39.0654 30.7178
1 48.5077 36.5055 30.763
1 35.2371 43.8083 30.7764
1 38.038 43.8589 30.7576
1 36.7076 41.3918 30.7965
1 40.9557 43.8749 30.7041
1 39.6255 41.4721 30.7629
1 43.8888 43.9062 30.7762
1 42.5323 41.4511 30.7114
1 46.7439 43.9736 30.7277
1 45.3458 41.4218 30.6528
1 49.726 44.0325 30.7669
1 48.2268 41.5323 30.8098
1 32.6519 48.8174 30.6798
1 35.3301 48.8124 30.7376
1 33.9331 46.3178 30.6706
1 38.1722 48.8435 30.724
1 36.7183 46.3697 30.6908
1 41.0485 48.9537 30.7273
1 39.6099 46.3265 30.6137
1 43.9082 48.9325 30.7201
1 42.513 46.4342 30.646
1 46.7837 48.9404 30.7448
1 45.3503 46.5287 30.7697
1 49.6388 48.9858 30.8289
1 48.1787 46.4143 30.772
1 44.3903 34.2607 35.5156
1 47.9982 32.7068 33.1353
1 47.193 34.1171 35.4955
1 50.5971 32.5482 33.1941
1 50.008 33.9995 35.2816
1 38.5772 37.4433 33.1065
1 38.2333 38.9441 35.4811
1 41.3399 37.1783 33.124
1 41.2266 39.0087 35.4161
1 39.8455 36.7846 35.5161
1 43.1202 34.9697 32.9694
1 44.1477 37.2877 33.101
1 44.1213 38.9299 35.4253
1 42.72 36.4786 35.6496
1 45.822 34.8052 33.1002
1 47.0143 37.3896 33.0405
1 47.0123 39.0717 35.4653
1 45.6293 36.5472 35.4803
1 48.6515 35.1087 33.1152
1 50.0258 37.4992 33.0543
1 49.8464 39.0716 35.5001
1 48.5176 36.5777 35.4616
1 35.4894 42.3036 33.0214
1 35.3354 43.7307 35.4171
1 36.9584 39.8875 33.1635
1 38.2452 42.2161 33.1335
1 38.2549 43.7982 35.344
1 36.8175 41.3655 35.5741
1 39.8987 39.7454 33.1757
1 41.1835 42.2619 33.0595
1 41.2169 43.8663 35.456
1 39.7556 41.3167 35.5015
1 42.7116 39.7948 33.1619
1 44.0846 42.2904 33.094
1 44.1619 43.9343 35.5077
1 42.6792 41.4359 35.412
1 45.5703 39.791 33.0772
1 46.8977 42.3336 33.1268
1 46.9389 43.9276 35.4653
1 45.476 41.3705 35.3875
1 48.4954 39.8536 33.1192
1 49.8486 42.4127 33.1821
1 49.8657 44.0368 35.4763
1 48.3503 41.5771 35.4351
1 32.6727 47.1282 32.945
1 32.6969 48.5876 35.2987
1 33.9937 44.7221 33.0219
1 35.3189 47.185 33.0045
1 35.3172 48.705 35.2851
1 33.9682 46.1373 35.3735
1 36.6597 44.6985 33.071
1 38.1629 47.1408 33.0349
1 38.2141 48.6834 35.465
1 36.8488 46.228 35.4158
1 39.7018 44.6718 33.0311
1 41.0452 47.1808 33.0525
1 41.1368 48.919 35.3105
1 39.7537 46.3368 35.4597
1 42.5922 44.7309 33.1491
1 43.9502 47.3753 33.0558
1 43.9834 48.9646 35.367
1 42.5935 46.484 35.3596
1 45.4071 44.8056 33.1053
1 46.8709 47.343 33.1245
1 46.8156 49.0008 35.463
1 45.4524 46.4599 35.3761
1 48.3446 44.8811 33.1272
1 49.7084 47.39 33.1453
1 49.7517 48.972 35.4661
1 48.321 46.5077 35.5139
1 33.7795 49.7238 33.0089
1 36.7223 49.6207 33.0266
1 39.5583 49.6702 33.0132
1 42.5032 49.7645 33.0081
1 45.4281 49.7885 33.0024
1 48.3094 49.8605 33.168
1 44.6595 34.053 40.1997
1 47.9845 32.7032 37.666
1 47.3726 33.9949 40.153
1 50.6406 32.6789 37.4839
1 50.153 33.8848 40.0151
1 38.7331 37.4026 37.7777
1 38.5169 38.8214 40.2811
1 41.446 37.2928 37.8487
1 41.3696 38.9661 40.192
1 40.2411 36.6083 40.2465
1 43.2304 34.8883 37.9181
1 44.3355 37.3977 37.845
1 44.2244 38.9569 40.1983
1 42.8781 36.3805 40.3063
1 45.9599 34.8697 37.782
1 47.25 37.4047 37.9419
1 47.152 39.0617 40.2327
1 45.7369 36.5305 40.1773
1 48.8796 34.9989 37.8065
1 50.0966 37.407 37.9026
1 50.069 39.155 40.3016
1 48.6478 36.5707 40.2224
1 35.5295 42.0565 37.8717
1 35.4333 43.6787 40.0237
1 37.0951 39.6134 37.8472
1 38.4022 42.0981 37.8733
1 38.3585 43.7359 40.2098
1 36.9613 41.2514 40.2293
1 39.879 39.6385 37.8623
1 41.2573 42.1606 37.7902
1 41.2881 43.7895 40.0856
1 39.8523 41.3046 40.2151
1 42.8505 39.8093 37.8201
1 44.1811 42.305 37.818
1 44.1397 43.9897 40.1373
1 42.7379 41.4809 40.2115
1 45.6739 39.8201 37.7691
1 46.9692 42.3657 37.8633
1 46.9927 43.9658 40.1662
1 45.6204 41.4476 40.1361
1 48.5477 39.908 37.8414
1 49.8454 42.4238 37.7906
1 49.9585 44.1857 40.2044
1 48.533 41.61 40.0896
1 32.7772 47.1829 37.8118
1 32.736 48.586 40.1257
1 34.155 44.7336 37.7448
1 35.4259 47.177 37.7415
1 35.4166 48.7221 40.0737
1 34.0359 46.0433 40.1335
1 36.8743 44.5167 37.7922
1 38.287 47.0114 37.7658
1 38.2781 48.7279 40.053
1 36.8569 46.1023 40.1169
1 39.7038 44.5883 37.7331
1 41.0999 47.2523 37.7387
1 41.2617 48.8118 40.108
1 39.7617 46.2317 40.0915
1 42.6753 44.7822 37.6997
1 44.0661 47.2899 37.6953
1 44.0068 48.8956 39.9699
1 42.7359 46.3657 40.0361
1 45.5558 44.8248 37.764
1 46.9239 47.3406 37.7858
1 46.9839 49.0611 39.9626
1 45.5513 46.5393 40.0816
1 48.4396 44.8138 37.823
1 49.8228 47.3015 37.9292
1 49.8379 49.0156 40.1943
1 48.3939 46.4964 40.177
1 33.8449 49.6637 37.6802
1 36.8091 49.5854 37.8396
1 39.7175 49.5669 37.701
1 42.4829 49.7682 37.7488
1 45.403 49.8474 37.7228
1 48.3358 49.84 37.7887
1 45.4853 32.7837 42.4901
1 48.1731 32.6405 42.4047
1 38.9185 37.2081 42.6072
1 41.5803 37.1697 42.6087
1 43.5843 34.8111 42.6114
1 44.412 37.36 42.5649
1 46.3637 35.0798 42.4753
1 47.3923 37.5293 42.5908
1 49.1675 35.0164 42.4921
1 50.2185 37.592 42.5684
1 35.6367 42.2176 42.4532
1 37.1852 39.6548 42.5362
1 38.4376 42.1247 42.5658
1 40.0317 39.6315 42.5681
1 41.3021 42.2188 42.5766
1 42.8588 39.717 42.5521
1 44.198 42.2788 42.4889
1 45.6346 39.8331 42.6045
1 47.0554 42.3557 42.4857
1 48.654 39.9782 42.547
1 49.9079 42.4884 42.5485
1 32.7528 47.0242 42.4275
1 34.1654 44.6396 42.5244
1 35.4761 47.0377 42.4339
1 36.9475 44.5696 42.4827
1 38.3616 47.0625 42.3778
1 39.8147 44.5964 42.4143
1 41.1631 47.1105 42.4574
1 42.7127 44.8 42.4635
1 44.1067 47.2901 42.3948
1 45.5167 44.7471 42.4603
1 47.0156 47.2613 42.461
1 48.3882 44.9576 42.4832
1 49.9359 47.2962 42.5816
1 33.98 49.5543 42.4121
1 36.8186 49.5759 42.4108
1 39.797 49.5567 42.4837
1 42.6259 49.6673 42.4263
1 45.4664 49.7024 42.4043
1 48.4107 49.765 42.4033
1 44.903 33.8337 44.9533
1 47.5734 33.9678 44.8299
1 50.3413 33.962 44.8462
1 38.5151 38.8421 44.8506
1 41.4358 38.7353 44.9202
1 40.147 36.4078 44.8666
1 44.2841 38.9258 44.8631
1 42.9955 36.1996 44.9933
1 47.1302 38.9884 44.9045
1 45.8514 36.5049 44.9044
1 49.9704 39.1229 44.846
1 48.6725 36.5088 44.9743
1 35.5404 43.7644 44.8236
1 38.3918 43.7972 44.8565
1 37.0329 41.2804 44.7716
1 41.3731 43.8339 44.8066
1 39.8676 41.281 44.924
1 44.1112 43.9173 44.8491
1 42.7652 41.3552 44.8702
1 47.0647 44.083 44.9256
1 45.5698 41.4632 44.8711
1 49.8145 44.1353 44.8421
1 48.4294 41.5288 44.9039
1 32.7925 48.6877 44.8466
1 35.4533 48.7894 44.7854
1 34.0501 46.2463 44.8069
1 38.357 48.7339 44.7434
1 36.8728 46.2565 44.7639
1 41.2525 48.8321 44.9168
1 39.9078 46.3141 44.8506
1 44.1881 48.9534 44.805
1 42.7568 46.4212 44.7594
1 47.0178 49.0341 44.8178
1 45.603 46.5236 44.7583
1 49.796 49.0065 44.9143
1 48.4382 46.542 44.8764
1 44.5734 33.9848 49.631
1 45.5335 32.6203 47.5291
1 47.3356 33.8404 49.6662
1 48.1488 32.7381 47.2549
1 50.2541 34.0488 49.6578
1 38.7905 37.313 47.0666
1 38.4606 38.8769 49.4034
1 41.5723 37.1296 47.2052
1 41.412 38.897 49.635
1 39.9673 36.62 49.4476
1 43.5995 34.7407 47.207
1 44.4243 37.3586 47.3458
1 44.2351 38.9818 49.5975
1 42.9098 36.3296 49.564
1 46.3038 34.9733 47.1588
1 47.334 37.4577 47.3251
1 47.1105 39.0563 49.6144
1 45.803 36.514 49.5235
1 49.1112 35.0596 47.2981
1 50.3485 37.5892 47.241
1 49.9633 39.2308 49.6599
1 48.6471 36.5859 49.584
1 35.7291 42.3205 47.0621
1 35.3775 43.9409 49.4968
1 37.2101 39.7483 47.0791
1 38.5059 42.1395 47.2039
1 38.24 43.9165 49.4727
1 36.8982 41.3858 49.3788
1 40.0255 39.6477 47.2767
1 41.3651 42.209 47.1707
1 41.2345 43.9499 49.5323
1 39.7364 41.4959 49.547
1 42.8356 39.7438 47.1988
1 44.1573 42.3113 47.279
1 44.1521 43.9899 49.544
1 42.6158 41.4908 49.5409
1 45.6725 39.8173 47.2366
1 46.9524 42.3037 47.2258
1 47.0517 44.051 49.5064
1 45.5784 41.5742 49.5764
1 48.6449 39.9696 47.2055
1 49.9126 42.4817 47.2601
1 49.8247 44.2397 49.5604
1 48.4162 41.5717 49.5965
1 32.7367 47.1882 47.1105
1 32.6328 48.8503 49.353
1 34.1945 44.6295 47.1443
1 35.436 47.1827 47.2053
1 35.3459 48.811 49.5497
1 33.8346 46.4072 49.4389
1 36.9947 44.7147 47.1236
1 38.424 47.1338 47.1337
1 38.291 48.808 49.5322
1 36.7254 46.3191 49.5116
1 39.8757 44.6258 47.1407
1 41.2777 47.1807 47.1871
1 41.0926 48.8817 49.4735
1 39.6991 46.3773 49.4312
1 42.6826 44.8226 47.195
1 44.113 47.29 47.0963
1 44.145 49.0027 49.585
1 42.6896 46.5078 49.5371
1 45.5318 44.7898 47.2225
1 46.9444 47.4377 47.2219
1 46.8876 49.1458 49.5819
1 45.5739 46.53 49.4784
1 48.4305 44.9976 47.2321
1 49.8305 47.4118 47.2648
1 49.7687 49.1269 49.6138
1 48.3451 46.6577 49.5677
1 34.0315 49.6741 47.1622
1 36.8825 49.614 47.1232
1 39.6862 49.6519 47.1727
1 42.6405 49.732 47.1736
1 45.4788 49.8438 47.1441
1 48.3135 49.9428 47.1999
1 44.3033 34.068 54.3343
1 45.1326 32.7431 52.0564
1 47.0695 34.0538 54.3846
1 47.8312 32.6293 52.1872
1 49.9369 34.081 54.2214
1 38.5859 37.4115 51.8914
1 38.2985 39.0427 54.1736
1 41.4043 37.1639 51.8086
1 41.2379 38.9836 54.14
1 39.8344 36.6948 54.1474
1 43.2804 34.8772 51.8968
1 44.1495 37.4599 51.91
1 44.0173 39.0829 54.242
1 42.6615 36.4651 54.2392
1 46.044 35.0481 51.9965
1 47.1246 37.5443 51.8882
1 46.9165 39.1074 54.1748
1 45.4371 36.5922 54.2576
1 48.8018 35.0947 51.9199
1 50.007 37.6066 52.0016
1 49.7034 39.0655 54.3475
1 48.3191 36.5712 54.21
1 35.5424 42.2789 51.6742
1 35.296 43.9531 54.102
1 36.9909 39.8268 51.6764
1 38.2824 42.2442 51.8513
1 38.128 44.0186 54.134
1 36.7959 41.4522 53.9835
1 39.8373 39.7349 51.7505
1 41.0948 42.2971 51.82
1 41.1478 44.0516 54.074
1 39.7027 41.4549 54.1156
1 42.681 39.8666 51.8855
1 44.0769 42.5029 51.8762
1 43.9844 44.0479 54.1585
1 42.5751 41.5768 54.2137
1 45.5173 39.9852 51.9065
1 46.9215 42.4441 51.9668
1 46.8575 44.2201 54.2328
1 45.4782 41.5967 54.2352
1 48.4719 40.0761 52.0046
1 49.7373 42.5133 51.9335
1 49.7481 44.136 54.3719
1 48.3072 41.6936 54.4004
1 32.6083 47.3559 51.7756
1 32.7024 48.8138 54.2368
1 34.0387 44.806 51.757
1 35.3319 47.3121 51.8767
1 35.3014 49.0848 54.144
1 33.9127 46.4133 54.1716
1 36.8192 44.7317 51.825
1 38.1535 47.2244 51.8616
1 38.2201 49.0872 54.1476
1 36.7176 46.5652 54.1486
1 39.7236 44.8717 51.8502
1 41.1193 47.3832 51.9181
1 41.0522 49.1066 54.2181
1 39.6367 46.6367 54.1623
1 42.6069 44.9113 51.7641
1 44.009 47.4102 51.8489
1 43.9523 49.1745 54.2751
1 42.5695 46.5974 54.2253
1 45.465 44.8992 51.8693
1 46.9566 47.3599 51.7971
1 46.8265 49.055 54.3068
1 45.3889 46.6166 54.1737
1 48.3613 44.9431 51.9635
1 49.7459 47.4219 51.8966
1 49.6337 49.233 54.2703
1 48.2972 46.6637 54.2459
1 33.813 49.7193 51.8172
1 36.7453 49.7855 51.7971
1 39.7152 49.8173 51.786
1 42.5468 49.9249 51.8882
1 45.4187 49.8496 51.9346
1 48.3064 49.9086 51.8811
1 44.2254 34.2876 58.965
1 45.1524 32.7118 56.8181
1 46.9485 34.0067 59.0093
1 47.7702 32.5714 56.7802
1 49.8812 33.9956 58.812
1 38.6005 37.509 56.4187
1 38.2206 39.1521 58.7711
1 41.2866 37.4575 56.5757
1 41.0818 39.1938 58.8901
1 39.7549 36.8385 58.8157
1 43.1352 34.9492 56.6706
1 44.2032 37.4932 56.6175
1 44.0378 39.0714 59.0012
1 42.559 36.6281 58.7892
1 45.9156 35.1536 56.6397
1 46.9717 37.6767 56.5957
1 46.8174 39.2209 59.0657
1 45.5075 36.5861 58.9711
1 48.6721 35.0226 56.5427
1 49.8218 37.5825 56.6975
1 49.608 39.2146 59.0459
1 48.3045 36.5222 58.9766
1 35.5415 42.3587 56.4293
1 35.2516 43.9652 58.7017
1 37.0199 39.9711 56.3976
1 38.286 42.3629 56.4439
1 38.0948 44.0557 58.8717
1 36.7328 41.5927 58.8858
1 39.8534 39.8418 56.4675
1 41.0274 42.5175 56.5215
1 40.9487 44.1949 58.8507
1 39.6278 41.6482 58.8864
1 42.6752 39.9741 56.5255
1 43.9351 42.5134 56.5585
1 43.9277 44.1897 58.8682
1 42.5329 41.7269 58.803
1 45.5808 40.0698 56.6235
1 46.9275 42.6502 56.6688
1 46.7494 44.1794 58.9169
1 45.2957 41.7136 58.9408
1 48.385 40.0994 56.7123
1 49.7234 42.5721 56.8077
1 49.5739 44.1489 59.0795
1 48.2319 41.6669 59.1125
1 32.5874 47.3936 56.5725
1 32.6717 48.8477 58.8578
1 33.9339 44.7642 56.4168
1 35.2381 47.4554 56.547
1 35.3032 49.2169 58.8308
1 33.9158 46.3919 58.8426
1 36.6905 44.8697 56.4742
1 38.1679 47.3733 56.4629
1 38.2083 49.1531 58.8484
1 36.7194 46.6455 58.821
1 39.5735 44.9277 56.4817
1 41.0987 47.3944 56.5578
1 41.1052 49.0258 58.9938
1 39.4923 46.6084 58.7972
1 42.4941 44.9536 56.5131
1 43.9075 47.4199 56.5656
1 43.9256 49.0643 58.9699
1 42.5223 46.555 58.8882
1 45.4524 45.0052 56.5613
1 46.71 47.5161 56.6926
1 46.7294 49.1839 59.0467
1 45.3621 46.6864 58.972
1 48.2735 45.131 56.6287
1 49.6179 47.6004 56.719
1 49.6091 49.1884 59.0523
1 48.1924 46.6969 59.0639
1 33.7237 49.9379 56.5466
1 36.7607 49.8783 56.4511
1 39.6957 49.8899 56.5452
1 42.4782 50.0392 56.6303
1 45.3371 49.9007 56.5794
1 48.1971 49.9498 56.7445
1 44.0303 34.3831 63.6655
1 46.6549 32.6917 61.3006
1 46.7551 34.1008 63.7026
1 49.2808 32.7636 61.1917
1 49.6131 34.045 63.5597
1 38.4776 37.7075 61.0685
1 38.2162 39.21 63.5751
1 41.1914 37.5171 61.135
1 41.0522 39.2418 63.5977
1 39.7205 36.9394 63.4148
1 42.75 35.1652 61.3234
1 43.9392 37.5839 61.3172
1 43.85 39.2288 63.705
1 42.4462 36.6899 63.5912
1 45.3453 35.0815 61.434
1 46.7469 37.577 61.3631
1 46.8156 39.1852 63.7574
1 45.3766 36.7709 63.6924
1 48.1117 35.0879 61.2914
1 49.7129 37.4956 61.3851
1 49.6042 39.1268 63.7586
1 48.2158 36.6035 63.6224
1 35.4487 42.5445 61.1686
1 35.1917 44.1419 63.46
1 36.9436 40.0065 61.1804
1 38.2011 42.4668 61.2689
1 38.1059 44.1417 63.5383
1 36.7033 41.6305 63.5516
1 39.7069 40.0104 61.2852
1 41.148 42.5079 61.2011
1 41.0466 44.2149 63.6596
1 39.5495 41.6578 63.5999
1 42.5324 40.0024 61.2154
1 43.901 42.527 61.2923
1 43.9674 44.2131 63.5905
1 42.3747 41.7067 63.643
1 45.3935 40.0477 61.3246
1 46.6637 42.5937 61.3596
1 46.7767 44.2573 63.6897
1 45.3609 41.6957 63.804
1 48.2455 40.055 61.3945
1 49.6276 42.4336 61.4664
1 49.5773 44.2146 63.7291
1 48.1029 41.6299 63.8565
1 32.6109 47.5139 61.1386
1 32.6557 48.973 63.6307
1 33.886 45.1319 61.2312
1 35.3019 47.4772 61.0552
1 35.2318 49.0441 63.5228
1 33.8499 46.5287 63.4876
1 36.6049 44.8992 61.0536
1 38.1251 47.3921 61.2218
1 38.212 49.1166 63.5702
1 36.6859 46.665 63.5138
1 39.5496 44.9123 61.2041
1 41.0465 47.3803 61.2138
1 41.065 49.1682 63.6548
1 39.5684 46.643 63.5446
1 42.4617 45.0211 61.275
1 43.8268 47.5241 61.2583
1 43.9033 49.1186 63.7851
1 42.5166 46.7097 63.6865
1 45.2813 45.056 61.2372
1 46.7716 47.4954 61.3857
1 46.7221 49.1759 63.8922
1 45.3837 46.7275 63.6174
1 48.2217 44.959 61.4098
1 49.5738 47.5179 61.4269
1 49.6098 49.1425 63.8231
1 48.1714 46.6956 63.8024
1 33.8632 49.8814 61.2731
1 36.7926 49.9536 61.1948
1 39.6545 49.9005 61.3405
1 42.534 50.0305 61.4995
1 45.3279 49.9806 61.4531
1 48.0885 49.9115 61.4514
1 43.9607 34.3259 68.2522
1 47.2099 32.7844 66.0288
1 46.7996 34.0671 68.4123
1 49.8511 32.585 65.9048
1 49.5389 33.8176 68.3099
1 38.3307 37.5112 65.8695
1 38.0078 39.0651 68.2647
1 40.9933 37.4293 65.9063
1 41.0164 39.1007 68.3022
1 39.6005 36.8394 68.2507
1 42.6769 35.1457 65.9979
1 43.924 37.4512 65.945
1 43.8734 39.1289 68.4016
1 42.4417 36.7128 68.2716
1 45.5328 34.9722 66.0488
1 46.7853 37.4585 66.0483
1 46.686 39.2023 68.4084
1 45.362 36.6524 68.4528
1 48.3889 35.1267 66.0164
1 49.6829 37.5597 66.1444
1 49.5684 39.1311 68.4754
1 48.1826 36.6358 68.4343
1 35.3786 42.4837 65.7902
1 35.1238 44.1013 68.1723
1 36.8079 40.0841 65.8801
1 38.1452 42.446 65.986
1 38.1301 44.0852 68.2655
1 36.6126 41.6291 68.1708
1 39.6271 39.9602 66.0356
1 40.9812 42.4233 66.0264
1 41.0053 44.0414 68.3132
1 39.4309 41.5491 68.3542
1 42.4833 39.9269 66.0894
1 43.7729 42.5955 66.015
1 43.7783 44.218 68.4284
1 42.4217 41.6359 68.3379
1 45.2578 39.955 66.0754
1 46.5981 42.575 66.1826
1 46.6395 44.0599 68.5364
1 45.2114 41.6466 68.4352
1 48.0846 40.019 66.0635
1 49.587 42.4667 66.1411
1 49.6166 44.0636 68.5316
1 48.1161 41.6087 68.5523
1 32.74 47.5813 65.8162
1 32.5678 49.0647 68.3366
1 33.9469 45.0305 65.8352
1 35.4016 47.397 65.9598
1 35.1685 49.1276 68.4061
1 33.9412 46.625 68.3184
1 36.7169 44.927 65.9002
1 38.2224 47.4607 66.0354
1 38.0999 49.0183 68.3874
1 36.6616 46.5534 68.3708
1 39.501 44.9119 65.934
1 40.9849 47.4491 66.0326
1 40.9745 49.078 68.42
1 39.5773 46.5239 68.3747
1 42.3891 45.0803 65.9955
1 43.9966 47.4728 66.0881
1 43.8314 49.1262 68.4664
1 42.4595 46.6942 68.3597
1 45.2397 45.0183 66.0424
1 46.8368 47.3966 66.216
1 46.7191 49.0738 68.4676
1 45.2366 46.5798 68.4545
1 48.2021 44.9688 66.1674
1 49.6351 47.4405 66.2021
1 49.5016 48.9876 68.5531
1 48.1292 46.516 68.4926
1 33.8483 49.9477 66.0099
1 36.7184 49.858 65.9184
1 39.5552 49.8419 65.9698
1 42.3946 49.8367 66.1011
1 45.2944 49.9572 66.1646
1 48.1456 49.9601 66.2046
1 43.9286 34.0378 73.0272
1 44.4399 32.8639 70.5379
1 46.7189 33.9239 72.9654
1 47.156 32.6108 70.6329
1 49.6074 33.9483 73.0413
1 38.3965 37.4516 70.6402
1 38.0694 39.0206 72.9922
1 41.1197 37.3448 70.6997
1 40.9422 38.9404 73.0706
1 39.5296 36.7351 72.9992
1 42.7656 34.9311 70.6224
1 43.8527 37.419 70.7848
1 43.8776 38.9938 73.157
1 42.4745 36.4111 73.1122
1 45.582 35.0947 70.7417
1 46.778 37.595 70.7863
1 46.7477 39.1178 73.2157
1 45.3205 36.5726 73.1181
1 48.3654 35.0231 70.7698
1 49.6298 37.4662 70.8716
1 49.5914 38.8811 73.2275
1 48.1371 36.4471 73.1492
1 35.2556 42.4174 70.5583
1 35.1374 43.8397 73.0187
1 36.7522 39.9707 70.5703
1 38.0123 42.3639 70.6285
1 38.0336 43.9054 73.0213
1 36.5076 41.4066 72.9279
1 39.5326 39.791 70.6765
1 40.9571 42.2738 70.8091
1 40.9357 43.9974 73.1757
1 39.3994 41.4146 73.0247
1 42.4475 39.8943 70.7122
1 43.8018 42.4486 70.8442
1 43.8319 44.0489 73.1872
1 42.3214 41.4701 73.0879
1 45.3128 39.9419 70.7819
1 46.6831 42.3973 70.8836
1 46.7287 43.929 73.2466
1 45.1371 41.5497 73.2873
1 48.1478 39.98 70.8393
1 49.563 42.432 70.9025
1 49.5896 43.9869 73.365
1 48.1751 41.5936 73.2278
1 32.569 47.5334 70.6253
1 32.5667 48.8357 73.0487
1 33.9537 44.8999 70.6385
1 35.1714 47.3803 70.6991
1 35.2306 48.9366 72.9496
1 33.7496 46.3101 72.9955
1 36.6083 44.8766 70.5823
1 38.0558 47.3076 70.7673
1 38.109 48.9062 73.1397
1 36.5958 46.3237 73.059
1 39.469 44.7253 70.7355
1 40.8638 47.2481 70.7453
1 40.8214 48.9981 73.1112
1 39.5043 46.4041 73.0293
1 42.2896 44.9587 70.7643
1 43.8186 47.46 70.7687
1 43.7121 49.0544 73.1474
1 42.3648 46.5279 73.1323
1 45.2204 44.95 70.8553
1 46.6689 47.3658 70.829
1 46.6274 48.9941 73.2715
1 45.2426 46.487 73.1173
1 48.0688 44.9104 70.879
1 49.5556 47.2266 70.9564
1 49.5345 48.991 73.3321
1 48.0249 46.5684 73.294
1 33.6997 49.9657 70.7436
1 36.7274 49.8935 70.7229
1 39.4702 49.8544 70.825
1 42.3537 49.7999 70.7897
1 45.2193 49.8277 70.811
1 48.0848 49.7452 71.0309
1 43.9432 34.0529 77.7455
1 44.4662 32.7814 75.3408
1 46.7601 33.8046 77.7632
1 47.0783 32.4351 75.3721
1 49.5795 33.8275 77.8758
1 38.291 37.4592 75.3641
1 38.033 38.9847 77.7893
1 41.0429 37.2335 75.5393
1 40.8789 38.8848 77.7608
1 39.5567 36.5857 77.7438
1 42.7322 34.8596 75.4817
1 43.9063 37.305 75.4569
1 43.8074 38.9821 77.7958
1 42.5099 36.3534 77.8332
1 45.5918 34.9982 75.4744
1 46.8594 37.4385 75.4546
1 46.7795 38.9246 77.9262
1 45.3076 36.5165 77.7681
1 48.3228 34.7717 75.4845
1 49.6465 37.2519 75.5389
1 49.5696 38.8395 77.9249
1 48.0845 36.3699 77.9178
1 35.2749 42.2614 75.402
1 35.0731 43.7816 77.7453
1 36.8375 39.8427 75.2444
1 38.0402 42.1544 75.3297
1 38.0855 43.9154 77.75
1 36.5267 41.4225 77.7117