5538
Atoms. Timestep: 100000
1 42.9126 36.1945 4.61022
1 47.0778 35.4855 6.94136
1 45.6622 36.2076 4.51577
1 48.6194 33.4731 6.82897
1 50.0239 34.1844 4.61703
1 36.9998 38.2792 6.75453
1 35.7546 39.1389 4.49087
1 39.8086 37.992 6.91273
1 39.9097 41.2331 4.59389
1 38.4247 38.8603 4.50812
1 41.5032 35.619 6.92995
1 42.6355 37.9457 6.91409
1 42.7209 41.1664 4.54662
1 41.3573 38.6105 4.52672
1 44.2433 35.4885 7.01679
1 45.531 37.8782 6.88866
1 45.461 41.3448 4.62444
1 44.2741 38.73 4.574
1 48.4293 36.3818 4.54101
1 49.7756 40.5372 7.1135
1 49.8688 38.9339 4.71862
1 47.0828 38.9649 4.56543
1 34.005 42.9664 6.78759
1 32.7908 43.9636 4.4591
1 35.49 40.6435 6.82132
1 36.8681 43.0931 6.84464
1 35.4972 43.8239 4.49588
1 34.1782 41.3683 4.53578
1 38.4244 40.5203 6.87324
1 39.7232 43.071 6.87664
1 38.4326 43.8376 4.54022
1 37.0184 41.397 4.43624
1 41.2101 40.4907 6.97776
1 42.5801 43.0567 7.05441
1 42.6918 46.3333 4.61793
1 41.2382 43.8369 4.57871
1 44.0238 40.6042 6.94991
1 45.4549 43.014 7.0995
1 46.8043 43.8148 4.68048
1 43.9834 43.7912 4.70168
1 46.8741 40.4887 6.99432
1 51.0677 43.1677 7.02943
1 49.6957 44.0787 4.74073
1 48.3283 41.4645 4.65972
1 31.3556 47.9478 6.65475
1 32.719 48.7053 4.36982
1 32.6674 45.483 6.73956
1 33.9772 47.9659 6.79656
1 35.4262 48.7808 4.40714
1 31.4285 46.308 4.57459
1 35.38 45.4204 6.92004
1 36.7494 47.9423 6.93616
1 38.2968 48.7945 4.59411
1 34.1599 46.311 4.4096
1 38.2932 45.5778 7.01571
1 39.6001 48.0548 6.99229
1 41.134 48.8455 4.66127
1 36.9914 46.2416 4.61571
1 41.0673 45.558 6.90772
1 42.4326 48.069 7.01459
1 43.8431 50.5855 7.09158
1 39.8208 46.363 4.62056
1 43.9831 45.4586 7.03177
1 45.3047 48.0291 7.01749
1 48.1207 48.1663 7.01794
1 43.994 48.9954 4.6932
1 48.2438 43.056 7.08361
1 49.4528 45.7274 7.12066
1 50.9439 48.1126 7.13478
1 46.7575 45.6247 6.98941
1 32.6063 50.3709 6.63734
1 35.3263 50.4621 6.81303
1 38.0725 50.5347 6.91704
1 40.9557 50.6406 7.06064
1 46.7679 50.5763 7.04258
1 49.5778 50.6552 7.02268
1 44.0477 34.1075 11.6933
1 48.2991 38.0959 6.96209
1 46.8941 34.1206 11.5773
1 49.9364 35.7954 7.01534
1 49.7485 34.0015 11.7894
1 38.2396 37.4654 9.17912
1 37.9212 38.9607 11.5182
1 41.0431 37.1418 9.33935
1 40.9121 38.845 11.6115
1 39.3972 36.6913 11.6231
1 42.7772 34.8942 9.4246
1 44.0019 37.192 9.26525
1 43.7417 38.8028 11.6578
1 42.2903 36.3302 11.7677
1 45.5021 34.6402 9.2555
1 46.8476 37.1947 9.27749
1 46.6982 38.8512 11.6862
1 45.2529 36.3863 11.6255
1 48.4658 34.7289 9.35473
1 49.6771 37.2933 9.42367
1 49.5829 38.9267 11.7451
1 48.1621 36.3583 11.7201
1 35.3362 42.2749 9.1507
1 35.2196 43.8268 11.6554
1 36.735 39.7521 9.14415
1 38.1547 42.096 9.12836
1 37.9488 43.803 11.6775
1 36.3691 41.3336 11.5105
1 39.6447 39.6956 9.27261
1 41.0187 42.1561 9.27137
1 40.826 43.7516 11.6704
1 39.391 41.3234 11.6372
1 42.5617 39.7226 9.25301
1 43.8512 42.1566 9.36286
1 43.677 43.8561 11.6885
1 42.2898 41.3959 11.6947
1 45.3428 39.6132 9.39592
1 46.7191 42.1079 9.42065
1 46.5972 43.9021 11.6896
1 45.1566 41.3026 11.7027
1 48.208 39.7163 9.39959
1 49.5966 42.2744 9.33382
1 49.4054 43.9054 11.7326
1 47.9884 41.3649 11.7435
1 32.4705 47.1048 9.09469
1 32.4814 48.5932 11.4736
1 33.8645 44.6913 9.14879
1 35.1613 47.1577 9.31387
1 35.0483 48.7637 11.5106
1 33.616 46.1809 11.4673
1 36.6842 44.6525 9.34625
1 37.9977 47.1579 9.35273
1 37.87 48.8121 11.6648
1 36.5627 46.2759 11.7017
1 39.5842 44.6223 9.31376
1 40.8134 47.2111 9.37144
1 40.8112 48.8161 11.7452
1 39.4083 46.2237 11.6541
1 42.3385 44.6809 9.32932
1 43.7473 47.245 9.34143
1 43.7275 48.9034 11.7245
1 42.2437 46.3004 11.8123
1 45.2361 44.738 9.3234
1 46.6371 47.2411 9.35362
1 46.5338 48.9122 11.8557
1 45.1514 46.4124 11.7058
1 48.0481 44.824 9.40305
1 49.418 47.3693 9.415
1 49.4369 49.0402 11.7218
1 48.0585 46.4385 11.7956
1 33.7685 49.6121 9.08138
1 36.573 49.6468 9.12547
1 39.3461 49.6883 9.41916
1 42.2054 49.564 9.39425
1 45.0934 49.7736 9.37834
1 47.9888 49.8104 9.38152
1 43.7863 33.9402 16.4596
1 50.1485 32.5953 14.0639
1 46.719 33.9434 16.4568
1 52.777 32.5927 14.064
1 49.5588 33.956 16.4373
1 38.1856 37.3252 13.9644
1 37.8771 38.8552 16.3738
1 40.9027 37.1156 14.0502
1 40.7745 38.736 16.4591
1 39.2823 36.4849 16.4362
1 42.7221 34.8173 14.02
1 43.8572 37.1214 14.0646
1 43.7108 38.7601 16.4091
1 42.2255 36.2433 16.3699
1 45.4503 34.6959 14.0456
1 46.8149 37.2377 13.9986
1 46.6549 38.8775 16.2876
1 45.2522 36.3454 16.3369
1 48.2986 34.6271 14.0686
1 49.5447 37.3369 14.1065
1 49.4826 38.9926 16.4621
1 48.1537 36.3935 16.4078
1 35.2023 42.1549 14.0022
1 34.8814 43.7832 16.3142
1 36.704 39.7419 13.9458
1 38.0344 42.0469 13.9975
1 37.83 43.8092 16.3592
1 36.5884 41.3576 16.2324
1 39.4737 39.6677 13.9944
1 40.9361 42.0747 14.0053
1 40.8086 43.8749 16.434
1 39.5096 41.2857 16.4768
1 42.3007 39.5917 14.0495
1 43.6195 42.1954 14.0773
1 43.604 43.8161 16.4356
1 42.2197 41.1955 16.4046
1 45.1713 39.7898 14.0968
1 46.5432 42.3464 14.1714
1 46.4222 43.9368 16.4489
1 45.0418 41.4026 16.5299
1 47.9574 39.8235 14.0551
1 49.489 42.3452 14.0581
1 49.4293 44.029 16.4898
1 47.9036 41.4356 16.3612
1 32.5213 47.2322 13.9078
1 32.4202 48.6369 16.2702
1 33.8686 44.6985 13.9828
1 35.1684 47.0469 13.9163
1 35.0066 48.9344 16.2801
1 33.625 46.2364 16.3484
1 36.5744 44.6024 14.0198
1 37.9096 47.1208 14.0911
1 37.8508 48.8113 16.4289
1 36.4131 46.213 16.3309
1 39.4049 44.7145 14.0157
1 40.717 47.235 14.062
1 40.7527 48.802 16.4415
1 39.2797 46.3326 16.2843
1 42.2622 44.6759 14.0827
1 43.6249 47.2613 14.1121
1 43.5287 48.8872 16.4496
1 42.1814 46.3491 16.4839
1 45.0306 44.7343 14.0512
1 46.5213 47.2325 14.0986
1 46.4193 48.9619 16.5606
1 44.9743 46.3448 16.4605
1 47.9765 44.7576 14.1103
1 49.3556 47.3278 14.1234
1 49.3731 48.9721 16.4532
1 47.8747 46.4931 16.4758
1 33.5724 49.6098 13.8743
1 36.4267 49.6192 13.9419
1 39.3439 49.7213 14.0461
1 42.2083 49.7707 14.092
1 44.9907 49.8548 14.1284
1 47.8221 49.8205 14.1389
1 43.7609 33.9202 21.0651
1 44.2215 32.5657 18.6666
1 46.6101 33.8645 21.176
1 46.8702 32.5646 18.7297
1 49.4833 33.9008 21.2295
1 38.1543 37.3104 18.8135
1 37.8354 38.8121 21.1109
1 40.8737 37.0672 18.8186
1 40.772 38.7539 21.2372
1 39.3047 36.5067 21.3186
1 42.5372 34.76 18.7221
1 43.6443 37.2477 18.8376
1 43.5821 38.89 21.0322
1 42.2511 36.3058 21.1275
1 45.315 34.891 18.7515
1 46.6427 37.301 18.7549
1 46.4876 38.9833 21.1475
1 45.1516 36.4778 21.1271
1 48.1843 34.9449 18.8511
1 49.5544 37.3758 18.7317
1 49.248 38.982 21.0616
1 47.9814 36.4268 21.1073
1 35.2157 42.1516 18.691
1 34.8856 43.8397 21.0513
1 36.7385 39.7554 18.6683
1 37.8968 42.1538 18.7415
1 37.764 43.7769 21.0649
1 36.3213 41.2954 21.054
1 39.4152 39.5922 18.753
1 40.7723 42.1364 18.8394
1 40.6234 43.8046 21.1434
1 39.1644 41.1804 21.225
1 42.1865 39.7459 18.8257
1 43.5819 42.1054 18.7607
1 43.4771 43.9047 21.1628
1 42.0986 41.2941 21.2634
1 45.0747 39.6625 18.7427
1 46.3886 42.2633 18.7355
1 46.4862 43.8513 21.1375
1 45.0219 41.4356 21.1641
1 47.8381 39.777 18.7091
1 49.2656 42.3576 18.7016
1 49.3098 44.0064 21.1003
1 47.8171 41.4419 21.0662
1 32.3879 47.339 18.6218
1 32.2833 48.7804 20.9244
1 33.6161 44.8152 18.6948
1 35.018 47.1878 18.5944
1 34.9467 48.8284 21.1005
1 33.5425 46.2805 21.0627
1 36.3581 44.6241 18.6433
1 37.8134 47.2427 18.7635
1 37.7463 48.866 21.1811
1 36.3057 46.3971 21.0597
1 39.2362 44.5935 18.7082
1 40.6988 47.1827 18.7323
1 40.6527 48.8078 21.1362
1 39.2454 46.3782 21.1235
1 42.2023 44.6574 18.7955
1 43.541 47.2607 18.852
1 43.5268 48.8765 21.1229
1 42.0858 46.329 21.2099
1 45.0008 44.7539 18.8246
1 46.4878 47.2279 18.8028
1 46.5042 48.9818 21.1264
1 44.9899 46.3379 21.2201
1 47.8184 44.7452 18.7532
1 49.2821 47.3027 18.844
1 49.3114 48.9588 21.2607
1 47.8863 46.4373 21.1448
1 33.5353 49.7611 18.5312
1 36.4172 49.7317 18.7846
1 39.2304 49.7254 18.7759
1 42.0832 49.8094 18.8046
1 45 49.7092 18.8538
1 47.8878 49.8112 18.7988
1 43.859 33.934 25.9926
1 44.6058 32.636 23.41
1 46.6976 33.9343 25.9935
1 47.2058 32.5535 23.6247
1 49.4842 33.9771 25.848
1 38.0002 37.3024 23.6311
1 37.8356 38.7978 25.8207
1 40.8236 36.993 23.5572
1 40.6747 38.7959 25.9648
1 39.3211 36.4936 25.924
1 42.6924 34.6988 23.63
1 43.5814 37.2029 23.5566
1 43.4968 38.7754 25.919
1 42.165 36.2817 25.895
1 45.4471 34.9994 23.5216
1 46.5254 37.3913 23.4374
1 46.3807 39.0019 25.8059
1 45.0553 36.439 25.9163
1 48.2319 34.9877 23.5441
1 49.5062 37.4327 23.4407
1 49.2584 39.081 25.8798
1 47.9686 36.5451 25.7935
1 35.2005 42.2452 23.4239
1 34.9418 43.7343 25.8426
1 36.6519 39.7249 23.4915
1 37.854 42.1149 23.4863
1 37.7217 43.8204 25.8214
1 36.4271 41.304 25.8981
1 39.368 39.5515 23.5006
1 40.6536 42.2059 23.4934
1 40.6592 43.8711 25.7916
1 39.2473 41.3404 25.9249
1 42.1398 39.5911 23.5577
1 43.5809 42.1632 23.5741
1 43.5271 43.9427 25.8456
1 42.1155 41.4236 25.8524
1 44.8903 39.7716 23.461
1 46.493 42.2909 23.5136
1 46.4105 43.896 25.8955
1 45.0317 41.49 25.8347
1 47.8398 39.9199 23.5176
1 49.2957 42.4687 23.4983
1 49.32 43.999 25.9265
1 47.9026 41.5322 25.9065
1 32.3502 47.248 23.3897
1 32.2579 48.4913 25.941
1 33.6745 44.8149 23.4386
1 34.9543 47.23 23.4809
1 34.8401 48.8575 25.8652
1 33.4997 46.1842 25.8295
1 36.4644 44.6337 23.3946
1 37.8008 47.2248 23.4537
1 37.6465 48.9318 25.931
1 36.3934 46.2632 25.8553
1 39.2169 44.6672 23.538
1 40.5479 47.2663 23.5636
1 40.5189 48.9324 25.9417
1 39.1957 46.3892 25.9021
1 42.0942 44.6874 23.4709
1 43.5077 47.2391 23.5111
1 43.3294 49.0636 25.7967
1 42.0415 46.4284 25.8432
1 44.9045 44.6979 23.5739
1 46.3348 47.381 23.4604
1 46.3592 48.958 25.8591
1 44.9321 46.476 25.8431
1 47.7839 44.8601 23.5075
1 49.2166 47.3144 23.5772
1 49.2904 48.9781 25.8531
1 47.8169 46.4541 25.8305
1 33.3048 49.7631 23.3777
1 36.3314 49.7525 23.5863
1 39.1363 49.7236 23.4831
1 42.0214 49.6943 23.5651
1 44.8463 49.8342 23.5733
1 47.7823 49.8221 23.5587
1 43.912 32.6559 28.3563
1 46.4622 32.5598 28.2212
1 38.0755 37.4641 28.2198
1 40.7787 37.2565 28.3209
1 42.2653 34.8917 28.379
1 43.6046 37.3179 28.3355
1 45.1509 34.97 28.2581
1 46.4884 37.457 28.1761
1 48.0712 34.9734 28.184
1 49.3733 37.4573 28.0868
1 35.2015 42.3351 28.2232
1 36.6331 39.8896 28.247
1 37.9416 42.2736 28.1736
1 39.349 39.7676 28.2915
1 40.7257 42.2436 28.332
1 42.181 39.7044 28.2398
1 43.5366 42.2812 28.2726
1 45.0277 39.7748 28.2215
1 46.3661 42.2772 28.2369
1 47.9309 39.9161 28.2853
1 49.2653 42.4432 28.3477
1 32.3744 47.167 28.2364
1 33.6778 44.7341 28.2766
1 34.9447 47.2014 28.1624
1 36.3778 44.7435 28.2402
1 37.7686 47.266 28.2815
1 39.3248 44.7431 28.1917
1 40.5623 47.2886 28.2533
1 42.0977 44.796 28.2037
1 43.5118 47.5064 28.2555
1 44.9178 44.848 28.2762
1 46.3561 47.3275 28.1937
1 47.8263 44.8768 28.2809
1 49.2795 47.394 28.1943
1 33.3148 49.6833 28.1728
1 36.1543 49.6743 28.2708
1 39.1646 49.7151 28.2868
1 41.9783 49.8122 28.2995
1 44.824 49.8995 28.2958
1 47.7278 49.7581 28.2937
1 43.7677 34.1036 30.6575
1 46.5532 34.0675 30.5968
1 49.3963 33.9192 30.6041
1 37.7798 38.9174 30.6446
1 40.7441 38.9528 30.6354
1 39.3686 36.6807 30.7203
1 43.5512 38.954 30.651
1 42.1578 36.4729 30.7052
1 46.5239 39.0221 30.5304
1 45.0575 36.5653 30.6531
1 49.4555 38.9546 30.5711
1 48.0446 36.5328 30.5573
1 35.0436 43.7929 30.6857
1 37.8001 43.8781 30.6736
1 36.4365 41.362 30.6411
1 40.6781 43.8669 30.6426
1 39.1884 41.3546 30.7118
1 43.5801 43.9469 30.6327
1 42.0863 41.3969 30.695
1 46.3761 43.8781 30.5356
1 44.9005 41.4425 30.5609
1 49.2515 44.1191 30.648
1 47.8641 41.4848 30.6996
1 32.213 48.6508 30.7299
1 34.8412 48.7804 30.5949
1 33.4894 46.2454 30.6207
1 37.6968 48.9297 30.647
1 36.3313 46.3384 30.6346
1 40.6417 48.9135 30.5624
1 39.2051 46.3512 30.6057
1 43.5015 49.0247 30.658
1 42.0888 46.4678 30.5099
1 46.3196 49.0761 30.6044
1 44.9222 46.4708 30.5334
1 49.2358 49.0748 30.684
1 47.7696 46.4936 30.4738
1 43.7299 34.1738 35.4278
1 46.8151 32.6337 32.8217
1 46.7195 34.0133 35.2731
1 49.4294 32.5275 32.9313
1 49.5011 33.9064 35.3867
1 37.9526 37.4003 33.1442
1 37.7501 39.0282 35.4342
1 40.7163 37.2701 33.1556
1 40.6988 38.8917 35.5986
1 39.311 36.6692 35.4891
1 42.3978 34.8787 33.0282
1 43.7129 37.2106 33.0485
1 43.7056 38.8917 35.3171
1 42.1898 36.3851 35.3835
1 45.1546 34.6961 33.0469
1 46.5976 37.369 32.9356
1 46.5017 39.0399 35.3943
1 45.2066 36.4791 35.3723
1 47.9622 34.9767 32.9008
1 49.4819 37.4474 32.9463
1 49.438 39.1883 35.4051
1 48.1262 36.5994 35.2964
1 35.1265 42.2812 33.0177
1 34.9762 43.8849 35.4736
1 36.5369 39.7857 33.069
1 37.7692 42.2253 33.0607
1 37.8038 43.8368 35.372
1 36.2299 41.3629 35.4527
1 39.3501 39.6799 33.0671
1 40.7222 42.1303 33.0646
1 40.6906 43.8935 35.4441
1 39.2583 41.3451 35.333
1 42.1728 39.6405 33.1858
1 43.6001 42.155 32.9298
1 43.5552 43.8743 35.2893
1 42.1448 41.3939 35.4882
1 45.1104 39.6955 33.0065
1 46.4995 42.262 33.0517
1 46.4363 44.0161 35.3127
1 45.0828 41.465 35.3324
1 48.02 39.8261 32.9449
1 49.3301 42.3431 32.9257
1 49.3757 43.9876 35.2983
1 47.9702 41.521 35.3771
1 32.2493 47.3029 33.0406
1 32.2625 48.6351 35.4473
1 33.6305 44.7714 32.9852
1 34.894 47.2524 33.0486
1 34.906 48.9347 35.454
1 33.5463 46.2476 35.3869
1 36.3525 44.7159 33.0514
1 37.7917 47.1708 33.0368
1 37.7812 48.8123 35.4566
1 36.275 46.3115 35.4193
1 39.2656 44.6983 33.0194
1 40.6426 47.1584 32.9779
1 40.6455 48.8244 35.4157
1 39.165 46.3257 35.4153
1 42.0874 44.6609 32.8933
1 43.4562 47.1484 32.874
1 43.527 48.8467 35.4124
1 42.0954 46.4097 35.2619
1 45.0051 44.6719 32.9412
1 46.382 47.3141 32.8761
1 46.4205 48.9161 35.3211
1 45.0112 46.3855 35.2616
1 47.82 44.8402 32.94
1 49.2388 47.2761 32.8811
1 49.2323 49.0392 35.2903
1 47.9386 46.4994 35.2116
1 33.3532 49.7057 33.0519
1 36.2853 49.6226 33.0193
1 39.1376 49.663 33.062
1 42.0025 49.6884 32.8958
1 44.869 49.7685 33.019
1 47.7968 49.7292 33.0346
1 44.0899 34.1932 40.163
1 46.8327 32.6348 37.5251
1 46.8621 33.9424 39.9422
1 49.5123 32.4966 37.8482
1 49.6508 33.9886 40.072
1 38.0569 37.4228 37.8289
1 37.926 38.88 40.2281
1 40.9538 37.097 37.8196
1 40.8219 39.0182 40.2787
1 39.5215 36.7335 40.0993
1 42.5821 34.8849 37.918
1 43.7089 37.2577 37.7235
1 43.8502 39.029 40.1253
1 42.372 36.5692 40.1995
1 45.2716 34.8781 37.7083
1 46.5437 37.4744 37.7284
1 46.8232 39.0728 40.016
1 45.2605 36.5262 40.0735
1 48.1515 34.8926 37.6793
1 49.4311 37.4308 37.6061
1 49.654 38.9251 40.0745
1 48.1623 36.4805 40.0571
1 35.0923 42.31 37.9428
1 35.0471 43.7427 40.2905
1 36.5433 39.7458 37.8687
1 37.7341 42.0852 37.714
1 37.9047 43.7886 40.1776
1 36.575 41.3645 40.3013
1 39.3656 39.7239 37.8898
1 40.7342 42.1834 37.8191
1 40.8811 43.9147 40.1029
1 39.3854 41.4409 40.182
1 42.2308 39.7398 37.8414
1 43.6242 42.2331 37.6724
1 43.6865 43.9293 40.0617
1 42.3152 41.4148 40.0881
1 45.1376 39.7729 37.7439
1 46.5458 42.4261 37.7909
1 46.5433 44.0022 40.0349
1 45.1476 41.4812 39.991
1 48.0212 39.9283 37.7213
1 49.4888 42.4334 37.708
1 49.381 44.0117 39.9957
1 48.052 41.6081 40.0532
1 32.3964 47.2655 37.8025
1 32.356 48.5759 40.3187
1 33.7065 44.8196 37.7547
1 35.0589 47.2211 37.7673
1 34.9961 48.8047 40.1053
1 33.6275 46.2191 40.1031
1 36.359 44.6295 37.8908
1 37.8458 47.1751 37.8874
1 37.8704 48.785 40.2861
1 36.3722 46.2316 40.2833
1 39.2219 44.659 37.7866
1 40.6601 47.1786 37.6649
1 40.7549 48.8452 40.2039
1 39.3393 46.3221 40.1041
1 42.212 44.7083 37.8086
1 43.542 47.1858 37.7714
1 43.5801 48.8995 40.1556
1 42.1829 46.4714 40.0843
1 45.0495 44.7549 37.6425
1 46.4311 47.3029 37.7481
1 46.5063 48.9672 40.1858
1 45.0309 46.4418 40.2214
1 47.9552 44.8875 37.643
1 49.3358 47.3318 37.6593
1 49.3876 48.9839 40.1497
1 47.9021 46.5212 40.1105
1 33.5409 49.6934 37.8271
1 36.3599 49.6107 37.8444
1 39.2429 49.582 37.9199
1 42.0949 49.7029 37.7251
1 44.9734 49.8077 37.8106
1 47.8491 49.7671 37.7058
1 44.5397 32.7408 42.7472
1 47.2474 32.5481 42.335
1 38.3582 37.3359 42.6395
1 41.0962 37.1406 42.5801
1 42.9433 34.9645 42.5652
1 43.8166 37.4583 42.5795
1 45.6296 35.0512 42.324
1 46.8164 37.5827 42.4341
1 48.4336 34.9172 42.4075
1 49.6718 37.3798 42.4761
1 35.2929 42.2028 42.6785
1 36.7138 39.7408 42.6396
1 38.0323 42.2091 42.6493
1 39.3982 39.71 42.6165
1 40.9156 42.26 42.5404
1 42.3415 39.8322 42.5171
1 43.8146 42.2955 42.4868
1 45.3356 39.932 42.3815
1 46.7164 42.3665 42.4926
1 48.2509 39.9724 42.3737
1 49.6107 42.3905 42.3932
1 32.5305 46.9687 42.6203
1 33.8379 44.5626 42.6651
1 35.1095 47.0823 42.6566
1 36.5774 44.6502 42.5472
1 37.9627 47.11 42.538
1 39.367 44.7445 42.4089
1 40.8301 47.1204 42.4915
1 42.3751 44.8319 42.5188
1 43.7352 47.3033 42.5048
1 45.279 44.7369 42.4553
1 46.59 47.2698 42.53
1 48.1183 44.9152 42.4771
1 49.4943 47.3315 42.5189
1 33.6209 49.5502 42.6246
1 36.4438 49.5465 42.6542
1 39.3025 49.5961 42.5909
1 42.2092 49.6697 42.575
1 45.0989 49.7686 42.5462
1 47.9392 49.7015 42.5091
1 44.1509 34.007 45.0624
1 46.9019 33.9688 44.5649
1 49.7725 33.965 44.8065
1 38.0694 38.9862 45.1023
1 40.9965 38.9069 44.9254
1 39.5865 36.7508 44.9952
1 43.8076 38.9953 44.8386
1 42.5605 36.3743 44.9775
1 46.8309 39.025 44.8332
1 45.4419 36.556 44.7798
1 49.6488 39.0515 44.7346
1 48.2603 36.4165 44.7982
1 35.1877 43.7004 45.0372
1 38.0198 43.9155 44.9562
1 36.5919 41.2959 45.0501
1 40.8962 44.0184 44.8542
1 39.5301 41.5005 44.907
1 43.906 43.9587 44.8074
1 42.3759 41.5421 44.887
1 46.7263 43.9095 44.9366
1 45.3492 41.4972 44.8177
1 49.5913 44.0025 44.7966
1 48.1459 41.5158 44.8331
1 32.5115 48.4656 44.9856
1 35.1243 48.7432 45.1026
1 33.7864 46.1685 45.1007
1 37.9621 48.9068 44.977
1 36.587 46.2978 45.0686
1 40.7613 48.8522 44.8895
1 39.5335 46.4099 44.9546
1 43.6844 48.8708 45.0101
1 42.4243 46.3555 44.9292
1 46.5119 48.974 44.9263
1 45.2664 46.4071 44.9295
1 49.4102 49.0039 44.9396
1 48.1209 46.5147 44.8509
1 44.3755 34.1799 49.7279
1 44.6219 32.8194 47.4648
1 47.1186 33.961 49.4451
1 47.1026 32.6733 47.082
1 50.0264 33.9328 49.437
1 38.4472 37.5014 47.3666
1 38.2849 38.8642 49.7701
1 41.2151 37.2429 47.3003
1 41.2546 38.9507 49.6258
1 39.8467 36.6796 49.7004
1 42.9505 34.9091 47.4205
1 44.0489 37.4048 47.2187
1 44.1035 38.9601 49.5444
1 42.7249 36.452 49.6784
1 45.7422 35.1464 47.112
1 47.0012 37.4977 47.1787
1 47.0334 39.0549 49.5511
1 45.6832 36.55 49.6153
1 48.5766 34.9385 47.1089
1 49.9084 37.3706 47.1561
1 49.7946 38.9619 49.4754
1 48.4933 36.4251 49.5368
1 35.4676 42.1461 47.493
1 35.4124 43.7778 49.8464
1 36.9577 39.8415 47.518
1 38.2123 42.1763 47.3598
1 38.1991 43.8189 49.7475
1 36.8221 41.3316 49.9151
1 39.7377 39.8548 47.3445
1 41.0858 42.281 47.3055
1 41.1031 43.9554 49.7112
1 39.7088 41.4335 49.7466
1 42.5549 39.8182 47.3395
1 44.0416 42.3659 47.1409
1 44.0625 44.0402 49.6043
1 42.6215 41.5785 49.5979
1 45.4801 39.9079 47.054
1 46.9081 42.3742 47.3082
1 46.9381 43.9605 49.5986
1 45.4756 41.4689 49.5818
1 48.3827 39.9775 47.1995
1 49.7098 42.3596 47.1317
1 49.7085 44.0146 49.5662
1 48.4086 41.4869 49.6231
1 32.5045 47.1537 47.4726
1 32.5258 48.6446 49.8893
1 33.8937 44.6615 47.5758
1 35.1849 47.116 47.445
1 35.1813 48.76 49.7794
1 33.9592 46.114 49.833
1 36.578 44.6142 47.4395
1 38.1214 47.1586 47.3784
1 38.1015 48.8577 49.8087
1 36.755 46.3249 49.6739
1 39.5502 44.6639 47.3236
1 40.9281 47.1662 47.2748
1 40.976 48.8597 49.6599
1 39.612 46.3391 49.6654
1 42.4566 44.668 47.2969
1 43.8286 47.2341 47.2729
1 43.8635 49.0247 49.6332
1 42.4676 46.3953 49.5702
1 45.3517 44.821 47.2464
1 46.7263 47.3162 47.2372
1 46.7356 48.9323 49.6517
1 45.4527 46.4526 49.6891
1 48.2624 44.8597 47.2466
1 49.6792 47.4043 47.292
1 49.6488 48.8853 49.7172
1 48.2301 46.5002 49.596
1 33.5716 49.6959 47.431
1 36.6722 49.5816 47.4236
1 39.4513 49.6938 47.3598
1 42.3168 49.68 47.302
1 45.1397 49.8722 47.3423
1 48.0456 49.814 47.2636
1 44.5762 34.0763 54.4136
1 47.4864 32.7055 51.6994
1 47.3566 34.0362 54.1884
1 50.0879 32.559 51.6759
1 50.2394 33.8841 54.0821
1 38.7609 37.4018 52.0483
1 38.5296 38.7734 54.5487
1 41.4513 37.1929 52.0258
1 41.423 38.8913 54.3219
1 40.0901 36.6659 54.4174
1 43.1606 34.8819 52.1254
1 44.31 37.3856 51.8629
1 44.2161 38.9551 54.278
1 42.8975 36.4141 54.4495
1 45.8852 34.9395 51.9557
1 47.2225 37.4322 51.9033
1 47.1163 39.05 54.2511
1 45.7957 36.5558 54.2716
1 48.7328 35.0017 51.7427
1 49.9773 37.5351 51.8809
1 50.0407 39.1037 54.3249
1 48.6926 36.5379 54.1646
1 35.5828 42.101 52.2989
1 35.3346 43.7737 54.5864
1 37.1415 39.6395 52.3287
1 38.3498 42.1847 52.1392
1 38.2532 43.8068 54.6052
1 37.0532 41.2447 54.5101
1 39.8903 39.7492 52.0919
1 41.1868 42.2593 52.0437
1 41.2087 43.8483 54.351
1 39.8472 41.3143 54.4721
1 42.7272 39.8315 51.8997
1 43.9969 42.3321 52.0135
1 44.0846 44.0201 54.4101
1 42.6992 41.4715 54.4772
1 45.5856 39.9122 51.8867
1 47.0299 42.304 51.9263
1 46.9921 43.9576 54.3746
1 45.5546 41.4986 54.2476
1 48.5274 39.9021 51.9498
1 49.8858 42.4126 51.9501
1 49.7967 44.0225 54.34
1 48.3723 41.5846 54.3756
1 32.7074 47.1239 52.2714
1 32.7496 48.6504 54.5733
1 34.0355 44.6359 52.3254
1 35.3991 47.0889 52.1525
1 35.3806 48.7477 54.5506
1 34.0287 46.2234 54.6321
1 36.8231 44.5445 52.2069
1 38.2155 47.0449 52.1087
1 38.2914 48.649 54.4598
1 36.8049 46.243 54.5601
1 39.6532 44.6621 52.1345
1 41.1731 47.1475 52.1383
1 41.1847 48.8425 54.4455
1 39.6833 46.304 54.4291
1 42.5603 44.7867 52.056
1 44.0445 47.291 51.9983
1 44.0484 48.932 54.4338
1 42.6277 46.3801 54.4744
1 45.5021 44.691 51.9989
1 46.8625 47.2907 52.0965
1 46.8888 48.9446 54.4293
1 45.459 46.4301 54.4843
1 48.3085 44.9026 52.0034
1 49.9016 47.2707 52.0536
1 49.8115 48.9231 54.3995
1 48.4549 46.5232 54.4318
1 33.8127 49.6176 52.1714
1 36.7967 49.5628 52.217
1 39.6251 49.5946 52.1324
1 42.5114 49.6151 52.1682
1 45.4656 49.7749 52.0617
1 48.3491 49.7781 52.0502
1 44.827 33.9853 58.9989
1 45.2154 32.6494 56.6894
1 47.6299 33.9808 58.9539
1 47.7451 32.7081 56.4967
1 50.3865 33.9821 59.155
1 38.8268 37.3628 56.89
1 38.6488 38.8803 59.1741
1 41.5194 37.1479 56.7549
1 41.5444 38.8997 59.154
1 40.1889 36.5495 59.1547
1 43.3693 34.7938 56.7319
1 44.3351 37.2341 56.685
1 44.4146 38.9261 59.0439
1 42.9284 36.4391 59.096
1 46.2668 35.0291 56.5571
1 47.3521 37.4033 56.5753
1 47.3428 39.0279 58.988
1 45.7907 36.4478 58.94
1 49.0941 35.0822 56.5025
1 50.3113 37.5529 56.6564
1 50.2244 38.9705 59.0305
1 48.7189 36.4301 58.89
1 35.7676 42.2034 56.986
1 35.5551 43.7562 59.3827
1 37.3117 39.7285 56.9252
1 38.5019 42.0738 56.9052
1 38.5478 43.7909 59.2985
1 37.1145 41.3259 59.27
1 40.1129 39.5988 56.7065
1 41.3822 42.238 56.8679
1 41.5024 43.8239 59.1358
1 40.0297 41.3794 59.1983
1 42.965 39.634 56.6707
1 44.1762 42.3646 56.7269
1 44.288 43.9026 59.1468
1 42.8528 41.3901 59.1961
1 45.7226 39.8258 56.6097
1 47.1576 42.2491 56.7451
1 47.1581 44.0459 59.1683
1 45.7418 41.3844 59.074
1 48.6905 39.856 56.6129
1 49.9213 42.4539 56.7766
1 49.9141 44.0195 59.1836
1 48.6422 41.4011 59.1361
1 32.7887 47.2056 56.9113
1 32.8755 48.5568 59.3185
1 34.3136 44.7483 56.9608
1 35.564 47.1909 56.9271
1 35.5766 48.7213 59.3288
1 34.2196 46.1694 59.3092
1 36.9949 44.5434 57.063
1 38.3535 47.0346 56.8086
1 38.4286 48.8304 59.1806
1 36.9918 46.251 59.3034
1 39.87 44.5839 56.9057
1 41.1639 47.2023 56.8123
1 41.2608 48.7679 59.2616
1 39.9438 46.2623 59.2173
1 42.6095 44.7894 56.7862
1 44.09 47.2946 56.8539
1 44.1578 48.8923 59.2473
1 42.7869 46.4315 59.1735
1 45.6025 44.7912 56.7814
1 47.0247 47.1999 56.716
1 46.9042 48.9185 59.1794
1 45.6372 46.4108 59.176
1 48.521 44.8614 56.7993
1 49.9281 47.3903 56.8576
1 49.8242 48.9569 59.1984
1 48.468 46.4399 59.2062
1 33.9852 49.6688 56.8924
1 36.9408 49.6146 56.8449
1 39.7888 49.7177 56.8254
1 42.6623 49.698 56.9782
1 45.5161 49.6661 56.872
1 48.3375 49.7243 56.7748
1 44.7867 34.1224 63.6735
1 47.8367 32.721 61.3408
1 47.6854 34.069 63.7554
1 50.5332 32.6902 61.4623
1 50.6113 34.021 63.8648
1 38.9339 37.3561 61.5589
1 38.6468 38.7454 63.8771
1 41.5762 37.0462 61.4171
1 41.6246 38.6735 63.8103
1 40.1987 36.4004 63.8359
1 43.3603 34.9537 61.5283
1 44.5821 37.2938 61.4237
1 44.6537 38.848 63.7676
1 43.1143 36.3132 63.8556
1 46.1106 34.8798 61.3675
1 47.5099 37.4387 61.3646
1 47.4433 38.9586 63.7422
1 46.1876 36.392 63.6878
1 48.9898 35.0557 61.3897
1 50.4421 37.4544 61.437
1 50.3143 39.0357 63.7751
1 49.0627 36.5431 63.7699
1 35.8273 42.1262 61.5466
1 35.5693 43.721 64.0109
1 37.3997 39.8125 61.4895
1 38.6418 42.2295 61.5765
1 38.5288 43.7438 64.0098
1 37.2218 41.2767 63.9261
1 40.2818 39.7203 61.5828
1 41.5117 42.2011 61.5409
1 41.4748 43.625 64.0358
1 40.0344 41.2153 63.8839
1 43.1208 39.6402 61.505
1 44.4169 42.2392 61.5464
1 44.3896 43.7501 63.9536
1 43.0497 41.2143 63.842
1 45.9622 39.8377 61.4076
1 47.349 42.265 61.4659
1 47.2714 43.9725 63.8335
1 45.9168 41.4497 63.8316
1 48.9261 39.894 61.4802
1 50.2264 42.466 61.4969
1 50.147 43.9831 63.8775
1 48.7634 41.4594 63.7328
1 32.9465 47.2284 61.6686
1 32.9623 48.5794 64.0072
1 34.3506 44.6651 61.7106
1 35.6905 47.1372 61.7527
1 35.5934 48.7366 64.0197
1 34.2839 46.1813 64.0457
1 37.076 44.523 61.6659
1 38.5354 47.0653 61.5338
1 38.4395 48.7176 63.9679
1 37.1006 46.1385 64.0416
1 40.0988 44.639 61.6641
1 41.3724 47.1632 61.6379
1 41.3377 48.7913 63.9091
1 40.0241 46.3438 64.0698
1 42.9144 44.6311 61.6742
1 44.1959 47.148 61.6465
1 44.1444 48.8554 64.1004
1 42.89 46.232 63.9658
1 45.6694 44.7481 61.5735
1 47.0789 47.2175 61.6262
1 47.1194 49.0146 63.8849
1 45.7618 46.4169 64.0269
1 48.6224 44.7897 61.5194
1 49.9691 47.3141 61.5817
1 49.9201 48.9696 63.8645
1 48.5318 46.462 64.0137
1 34.136 49.6161 61.6628
1 37.0705 49.592 61.6878
1 39.9271 49.5552 61.6492
1 42.8261 49.6638 61.6648
1 45.5275 49.6734 61.7224
1 48.4305 49.7726 61.4578
1 44.9461 34.0186 68.4042
1 48.1242 32.4518 65.9245
1 47.6982 33.7309 68.4753
1 50.651 32.5033 66.2764
1 50.5007 33.897 68.5746
1 38.9579 37.1774 66.1927
1 38.7173 38.5735 68.61
1 41.7928 36.969 66.1886
1 41.664 38.7137 68.5191
1 40.143 36.3944 68.5237
1 43.466 34.6197 66.1254
1 44.6508 37.0685 66.1304
1 44.6057 38.7826 68.5037
1 43.2154 36.2373 68.4838
1 46.2355 34.5845 66.0439
1 47.517 37.2565 66.0826
1 47.4711 38.8467 68.5972
1 46.2146 36.3286 68.4641
1 49.1756 34.7908 66.163
1 50.3606 37.3225 66.2684
1 50.3213 38.9886 68.576
1 49.0669 36.3458 68.5234
1 36.0055 42.1868 66.2993
1 35.807 43.6235 68.6119
1 37.4809 39.7428 66.2191
1 38.6976 42.1164 66.3319
1 38.6138 43.6759 68.6746
1 37.3441 41.0846 68.6152
1 40.249 39.5334 66.2062
1 41.5253 41.9797 66.2982
1 41.4922 43.634 68.5753
1 40.0984 41.0979 68.5816
1 43.1226 39.5207 66.1199
1 44.5032 42.1062 66.2343
1 44.4489 43.8094 68.5853
1 43.1124 41.2079 68.5917
1 45.9521 39.7143 66.1911
1 47.2906 42.3278 66.2123
1 47.3937 43.8895 68.6048
1 46.0112 41.3728 68.5025
1 48.7511 39.7851 66.2023
1 50.2286 42.2655 66.1359
1 50.1879 44.0179 68.6022
1 48.8676 41.4774 68.5353
1 32.9821 46.9184 66.3461
1 33.0158 48.561 68.6449
1 34.4045 44.5629 66.2606
1 35.7371 47.0304 66.3981
1 35.6194 48.7228 68.6867
1 34.3243 46.1492 68.5646
1 37.2052 44.5779 66.3844
1 38.472 47.0843 66.304
1 38.6166 48.6647 68.6895
1 37.0576 46.177 68.7673
1 40.1494 44.6167 66.3099
1 41.4581 47.1162 66.3297
1 41.4446 48.7843 68.737
1 40.0007 46.1636 68.655
1 42.965 44.6297 66.3029
1 44.3128 47.1534 66.3077
1 44.2525 48.8122 68.6339
1 42.9121 46.198 68.6328
1 45.8905 44.6661 66.2913
1 47.1021 47.2862 66.347
1 47.0943 48.9149 68.5952
1 45.802 46.2998 68.6728
1 48.721 44.9386 66.2201
1 50.0589 47.3868 66.2877
1 50.0961 49.093 68.6454
1 48.7224 46.5107 68.6983
1 34.1304 49.5616 66.3501
1 37.0678 49.6418 66.3218
1 39.9368 49.5625 66.2343
1 42.8468 49.7573 66.3548
1 45.6725 49.8222 66.3076
1 48.5245 49.8505 66.2668
1 44.9549 33.8083 73.0922
1 45.3361 32.4731 70.7189
1 47.7901 33.7731 73.2388
1 47.952 32.4614 70.9254
1 50.6368 33.9084 73.2748
1 39.0323 37.1896 70.9
1 38.9106 38.6593 73.3329
1 41.8787 36.9608 70.7332
1 41.7809 38.7267 73.2524
1 40.361 36.4004 73.1509
1 43.6298 34.6809 70.7109
1 44.6719 37.0469 70.8646
1 44.6716 38.8 73.1634
1 43.2539 36.0337 73.145
1 46.4463 34.7881 70.8558
1 47.5467 37.3176 70.8524
1 47.4607 38.8213 73.1724
1 46.1261 36.3533 73.1717
1 49.1207 34.7546 70.8976
1 50.4241 37.2573 70.8514
1 50.355 38.9487 73.216
1 49.0513 36.3749 73.2477
1 36.0817 41.9924 70.9298
1 35.865 43.6034 73.2577
1 37.599 39.5518 71.0034
1 38.8296 42.0378 70.9711
1 38.7383 43.6398 73.2277
1 37.3027 41.1523 73.2787
1 40.2888 39.4933 70.9184
1 41.7287 42.0251 70.909
1 41.5494 43.6926 73.2839
1 40.2633 41.175 73.2367
1 43.1323 39.4598 70.8267
1 44.5583 42.1328 70.9443
1 44.461 43.7856 73.3286
1 43.0661 41.2426 73.2446
1 45.9358 39.6938 70.7634
1 47.4419 42.2339 70.8788
1 47.3104 43.9368 73.2716
1 45.9341 41.3068 73.2299
1 48.9491 39.775 70.9419
1 50.3077 42.3792 70.8899
1 50.1617 43.9713 73.3568
1 48.8259 41.4475 73.2194
1 33.079 46.9506 70.9023
1 32.9888 48.4501 73.4146
1 34.6149 44.5613 70.938
1 35.7159 47.0286 70.9785
1 35.586 48.6226 73.3441
1 34.3416 46.0326 73.3333
1 37.2779 44.5018 71.0695
1 38.6199 46.9865 71.0562
1 38.5067 48.6349 73.4046
1 37.1848 46.1205 73.3928
1 40.236 44.5477 70.923
1 41.3819 47.1239 70.9571
1 41.3995 48.7343 73.3632
1 40.0625 46.201 73.2865
1 42.9726 44.5706 70.9045
1 44.3112 47.1933 70.9597
1 44.3234 48.8828 73.2502
1 42.8979 46.3026 73.2223
1 45.8558 44.6809 70.9507
1 47.2555 47.341 71.0493
1 47.2218 49.0516 73.2263
1 45.8113 46.3432 73.2926
1 48.6879 44.8561 70.972
1 50.1541 47.2484 70.967
1 50.0868 49.0158 73.3256
1 48.7052 46.4826 73.3161
1 34.1413 49.5369 71.0362
1 37.0013 49.5158 71.0051
1 39.8915 49.5891 71.0479
1 42.8659 49.6386 71.0023
1 45.7206 49.7085 70.9688
1 48.6223 49.8458 70.9195
1 44.7658 33.8174 77.8765
1 45.3499 32.4596 75.5169
1 47.7118 33.849 77.8207
1 47.9838 32.4306 75.4895
1 50.5151 33.904 78.0686
1 39.1239 37.0842 75.5812
1 38.6904 38.6759 77.9021
1 41.8931 36.8192 75.5088
1 41.7468 38.6299 77.949
1 40.385 36.4046 77.8621
1 43.6867 34.6032 75.5491
1 44.688 37.1922 75.4799
1 44.6806 38.775 77.8989
1 43.38 36.1456 77.8506
1 46.3324 34.8818 75.4983
1 47.7117 37.1759 75.5401
1 47.4696 38.8544 77.9774
1 46.1791 36.3012 77.8381
1 49.2736 34.8205 75.6703
1 50.5453 37.3749 75.6
1 50.4336 38.9887 77.9947
1 49.0134 36.4596 78.0075
1 36.0098 41.9606 75.5848
1 35.7884 43.486 77.9045
1 37.5567 39.5502 75.499
1 38.7888 41.917 75.575
1 38.7045 43.5815 77.9733
1 37.3133 41.07 77.8334
1 40.3939 39.4136 75.6508