5538
Atoms. Timestep: 20000
1 42.379 36.3818 5.38424
1 46.7565 35.5396 7.57854
1 45.3309 36.3412 5.24624
1 48.421 33.5012 7.32982
1 49.8798 34.065 5.26292
1 36.7464 38.2258 7.63625
1 35.3346 38.9868 5.50713
1 39.4479 38.0061 7.63843
1 39.5935 41.237 5.37516
1 38.118 38.8037 5.34462
1 41.1411 35.8306 7.81189
1 42.3455 38.0892 7.61826
1 42.4334 41.2149 5.26567
1 41.0172 38.7577 5.26261
1 43.8861 35.6582 7.68285
1 45.419 38.0003 7.53133
1 45.3769 41.3018 5.27223
1 43.8338 38.6743 5.23244
1 48.1881 36.2464 5.37415
1 49.7025 40.5881 7.50468
1 49.613 38.871 5.31532
1 46.7542 38.782 5.21693
1 33.7909 42.9233 7.62604
1 32.4666 43.742 5.20604
1 35.1823 40.5962 7.70914
1 36.6262 43.0608 7.75034
1 35.1702 43.7443 5.19955
1 33.9124 41.3087 5.41696
1 38.0561 40.5185 7.69505
1 39.4015 43.0379 7.62215
1 38.0251 43.7893 5.3042
1 36.6843 41.3532 5.24737
1 40.9542 40.4555 7.6624
1 42.3684 42.9231 7.50022
1 42.4041 46.2709 5.22143
1 40.9542 43.7307 5.24041
1 43.9588 40.5335 7.4997
1 45.2916 43.1265 7.53391
1 46.769 44.0096 5.2125
1 43.8916 43.7877 5.20009
1 46.8381 40.6073 7.50233
1 51.0839 43.1744 7.48179
1 49.589 43.9968 5.14513
1 48.1902 41.4017 5.17925
1 30.9614 47.6013 7.46914
1 32.1023 48.6136 5.15014
1 32.1849 45.3165 7.61646
1 33.5507 47.7844 7.61566
1 35.0609 48.598 5.31281
1 31.0488 46.1636 5.27174
1 35.0459 45.383 7.55514
1 36.5167 47.9687 7.55719
1 37.9163 48.7314 5.04809
1 33.6726 46.1712 5.13959
1 37.9502 45.5355 7.62583
1 39.4558 48.069 7.48767
1 40.9028 48.8007 5.10082
1 36.577 46.2096 5.15857
1 40.88 45.4993 7.54057
1 42.2874 48.0012 7.47002
1 43.6909 50.4458 7.34633
1 39.4706 46.2746 5.21487
1 43.9273 45.4782 7.49585
1 45.2022 48.024 7.33169
1 48.0531 48.0793 7.16698
1 43.7623 48.7996 5.07184
1 48.2187 43.1154 7.52241
1 49.5886 45.7498 7.43053
1 50.8888 48.2339 7.30403
1 46.7206 45.6495 7.52085
1 32.13 50.1336 7.54462
1 34.8865 50.2936 7.56173
1 37.947 50.417 7.43462
1 40.7207 50.5185 7.44385
1 46.5737 50.4523 7.2609
1 49.4283 50.6005 7.21191
1 43.9832 34.2396 12.2006
1 48.1855 38.0584 7.53318
1 46.862 34.2463 12.2122
1 49.7419 35.6592 7.65948
1 49.7438 34.1643 12.1955
1 38.0725 37.4804 9.93772
1 38.0498 39.0366 12.3125
1 40.8938 37.2682 9.98171
1 40.9694 39.0754 12.2959
1 39.589 36.7622 12.3557
1 42.6012 34.9819 9.97801
1 43.9368 37.2996 9.96884
1 43.7887 38.9448 12.2485
1 42.3981 36.4957 12.3889
1 45.3636 34.787 9.88007
1 46.8422 37.2469 9.88521
1 46.8356 39.0427 12.2015
1 45.3645 36.5497 12.3075
1 48.2971 34.7651 9.83051
1 49.7296 37.31 9.9454
1 49.7511 39.0867 12.2235
1 48.2353 36.6574 12.2642
1 35.0593 42.168 9.96897
1 35.1141 43.8213 12.17
1 36.5934 39.7676 9.99172
1 37.9127 42.2422 10.0691
1 38.0484 43.967 12.2867
1 36.563 41.4481 12.3399
1 39.4608 39.7791 9.98208
1 40.9275 42.2097 10.0457
1 40.9989 44.0562 12.2266
1 39.5467 41.6269 12.3115
1 42.4641 39.7712 9.91053
1 43.8669 42.2982 9.82377
1 43.884 43.9423 12.1421
1 42.468 41.5081 12.2838
1 45.4082 39.7369 9.88116
1 46.6988 42.2842 9.86418
1 46.6325 44.0352 12.0892
1 45.2344 41.4336 12.2674
1 48.2379 39.7608 9.87794
1 49.6406 42.3563 9.91271
1 49.5735 44.0833 12.2074
1 48.1471 41.5838 12.1659
1 32.2039 47.0107 9.85543
1 32.4214 48.5726 12.3217
1 33.6365 44.6024 9.96811
1 35.031 47.1302 10.0075
1 35.0271 48.9345 12.3104
1 33.7237 46.1866 12.3205
1 36.5155 44.7921 10.033
1 38.0136 47.2598 9.91457
1 37.8551 48.9421 12.1894
1 36.4706 46.4589 12.3323
1 39.5359 44.7436 9.94223
1 40.8823 47.2002 9.85636
1 40.7842 48.9648 12.1074
1 39.4323 46.4835 12.2502
1 42.3707 44.7011 9.90731
1 43.7585 47.2932 9.7906
1 43.7834 49.0575 12.07
1 42.397 46.5227 12.2021
1 45.2454 44.8059 9.87529
1 46.6548 47.3268 9.57147
1 46.677 49.0349 11.9761
1 45.355 46.5656 12.1161
1 48.1445 44.8257 9.82296
1 49.5118 47.2944 9.66539
1 49.5421 49.1465 11.9399
1 48.1294 46.5606 12.0135
1 33.501 49.531 10.0126
1 36.422 49.6275 9.84085
1 39.3523 49.7172 9.8515
1 42.1593 49.8089 9.7322
1 45.1721 49.7918 9.76412
1 48.0538 49.8369 9.51678
1 44.14 34.129 16.9716
1 50.0448 32.6628 14.3423
1 46.9292 34.0688 16.9226
1 52.6989 32.7475 14.5882
1 49.8525 33.9931 16.7604
1 38.3462 37.435 14.6797
1 38.172 38.8982 17.0126
1 41.063 37.2025 14.6262
1 41.0523 38.9345 16.9287
1 39.6434 36.6516 16.9684
1 42.7623 34.9831 14.6962
1 43.9846 37.3834 14.6467
1 43.9651 39.0534 16.974
1 42.6034 36.4372 16.9542
1 45.4781 34.842 14.544
1 46.9138 37.3273 14.5558
1 47.0446 39.1291 16.8791
1 45.5491 36.554 16.8974
1 48.3261 34.8046 14.5344
1 49.7895 37.4339 14.5571
1 49.93 39.0549 16.8508
1 48.4188 36.5309 16.9137
1 35.4487 42.4469 14.5414
1 35.1235 43.8314 16.9888
1 36.8988 39.8692 14.6469
1 38.0961 42.383 14.5786
1 38.068 44.0142 16.9377
1 36.6096 41.4965 16.9216
1 39.6276 39.8137 14.629
1 41.0184 42.4462 14.5819
1 40.9599 44.0514 16.9085
1 39.4912 41.4363 16.9433
1 42.522 39.8398 14.658
1 44.0172 42.3723 14.5785
1 43.8152 44.0578 16.851
1 42.5453 41.5136 16.9415
1 45.4162 39.8507 14.6735
1 46.8625 42.3621 14.5118
1 46.7107 43.9871 16.8151
1 45.3758 41.569 16.8756
1 48.2261 39.9411 14.4989
1 49.7646 42.4262 14.5369
1 49.604 44.1295 16.9089
1 48.3012 41.6141 16.8607
1 32.2817 46.9935 14.6975
1 32.3926 48.7488 16.9078
1 33.7605 44.7158 14.5901
1 34.9892 47.2665 14.6391
1 35.1031 48.7975 16.9422
1 33.5567 46.2905 16.8967
1 36.4642 44.8531 14.6173
1 37.8924 47.3379 14.7223
1 37.9469 48.8477 17.0092
1 36.457 46.3375 17.1099
1 39.4593 44.8856 14.6239
1 40.9282 47.3204 14.485
1 40.816 48.9964 16.7859
1 39.532 46.5112 16.9985
1 42.3893 44.8924 14.4971
1 43.8813 47.3395 14.3963
1 43.6984 49.0186 16.7439
1 42.3773 46.5829 16.8692
1 45.2383 44.8497 14.4891
1 46.7309 47.4809 14.4232
1 46.7388 49.0007 16.7287
1 45.3275 46.5906 16.8135
1 48.1035 44.9139 14.4911
1 49.5972 47.4776 14.4304
1 49.529 49.0165 16.8354
1 48.1192 46.5235 16.8146
1 33.5582 49.6632 14.5879
1 36.3914 49.8382 14.6184
1 39.3076 49.7817 14.5259
1 42.2949 49.7761 14.4153
1 45.2404 49.8082 14.3668
1 48.0658 49.9732 14.3369
1 44.2192 34.1684 21.617
1 44.5812 32.9139 19.3582
1 46.9654 33.8608 21.5102
1 47.2812 32.6178 19.138
1 49.7626 33.7618 21.5426
1 38.3787 37.5369 19.4384
1 38.2065 39.1085 21.6243
1 41.229 37.2966 19.2934
1 41.1545 38.9257 21.6068
1 39.6567 36.7097 21.661
1 42.874 34.9493 19.3179
1 44.1389 37.3862 19.142
1 44.0604 39.0371 21.659
1 42.6554 36.6651 21.626
1 45.7568 35.1355 19.2232
1 47.0897 37.5893 19.1972
1 47.0292 39.0817 21.6677
1 45.4946 36.6336 21.5617
1 48.6078 34.965 19.2227
1 49.9712 37.482 19.1756
1 49.8448 39.0505 21.595
1 48.4348 36.4305 21.4978
1 35.3829 42.2998 19.3489
1 35.2075 43.9603 21.6507
1 36.8488 39.8291 19.2656
1 38.0898 42.2436 19.2911
1 38.089 43.8961 21.6781
1 36.7268 41.4897 21.6535
1 39.6922 39.7842 19.3135
1 41.0485 42.2917 19.2524
1 41.0302 44.0093 21.5672
1 39.6905 41.489 21.5915
1 42.6326 39.8867 19.2862
1 43.9173 42.4222 19.2153
1 43.9026 44.0153 21.5989
1 42.5016 41.5068 21.6255
1 45.557 39.9464 19.2339
1 46.8233 42.4825 19.2303
1 46.8653 44.1134 21.6358
1 45.355 41.48 21.5941
1 48.4983 40.0137 19.2628
1 49.7178 42.446 19.1884
1 49.6656 44.129 21.5073
1 48.3336 41.6214 21.6365
1 32.5954 47.3417 19.3708
1 32.5627 48.7532 21.6249
1 33.9946 44.8952 19.3289
1 35.2316 47.291 19.4298
1 35.2083 48.9279 21.6775
1 33.7706 46.3626 21.7294
1 36.6482 44.7731 19.3908
1 38.0805 47.2078 19.257
1 38.1686 48.981 21.6235
1 36.7283 46.374 21.6613
1 39.5776 44.7267 19.3081
1 41.0018 47.2841 19.2821
1 41.0246 48.9331 21.5078
1 39.5867 46.4607 21.6119
1 42.4132 44.8404 19.2119
1 43.8602 47.4235 19.1501
1 43.9476 49.1272 21.5679
1 42.4556 46.4341 21.5515
1 45.3318 44.9145 19.1112
1 46.7335 47.4066 19.1671
1 46.7628 49.1129 21.468
1 45.3159 46.5991 21.5741
1 48.2035 44.9433 19.2081
1 49.5781 47.4054 19.2096
1 49.6023 49.1445 21.4556
1 48.1904 46.5741 21.5273
1 33.6457 49.7559 19.2177
1 36.6306 49.7384 19.3679
1 39.4007 49.7291 19.2096
1 42.3944 49.8141 19.0819
1 45.2836 49.8325 19.091
1 48.1538 49.8874 19.1194
1 44.2825 34.0587 26.3427
1 44.6625 32.7605 23.965
1 47.0399 33.9666 26.2011
1 47.2404 32.567 23.9032
1 49.8256 33.7936 26.1899
1 38.4968 37.5319 23.9914
1 38.1985 39.0415 26.39
1 41.1909 37.3114 23.9481
1 41.1953 39.0393 26.3062
1 39.7208 36.7992 26.3724
1 43.025 34.984 23.9252
1 44.0933 37.4639 24.0115
1 44.0881 39.0707 26.3588
1 42.7091 36.5435 26.2314
1 45.7807 34.968 23.8606
1 47.0172 37.498 23.9782
1 46.9822 39.0064 26.3238
1 45.5543 36.5171 26.2556
1 48.5411 34.9071 23.8418
1 49.9172 37.3214 23.8533
1 49.8584 39.0406 26.1476
1 48.3842 36.4734 26.2342
1 35.4431 42.434 24.0972
1 35.3781 43.9964 26.3601
1 37.0522 39.9549 24.1351
1 38.2122 42.3368 23.9425
1 38.1264 43.9603 26.3252
1 36.7038 41.5172 26.4392
1 39.7414 39.8545 23.9577
1 41.0178 42.363 23.9295
1 40.9909 43.9872 26.2743
1 39.5619 41.4149 26.3332
1 42.5774 39.8679 23.9888
1 43.9263 42.3715 23.9259
1 43.8757 44.1611 26.2518
1 42.521 41.5582 26.3241
1 45.5319 39.895 23.9473
1 46.8519 42.3711 23.8352
1 46.8116 44.0788 26.2334
1 45.4661 41.596 26.263
1 48.4252 39.9249 23.9629
1 49.7713 42.4619 23.9174
1 49.8367 44.0397 26.261
1 48.3473 41.5568 26.1631
1 32.7405 47.3529 24.0367
1 32.7537 48.88 26.4199
1 33.9584 44.8994 24.1367
1 35.3361 47.3071 24.0526
1 35.3187 48.9478 26.3276
1 33.8574 46.3983 26.4283
1 36.6827 44.7732 24.0186
1 38.1774 47.326 24.0004
1 38.1921 48.9946 26.2752
1 36.8114 46.4338 26.3449
1 39.4767 44.8214 23.9529
1 41.0497 47.3512 23.9334
1 41.0728 49.0861 26.2639
1 39.6594 46.4829 26.287
1 42.4456 44.8274 23.9657
1 43.932 47.4518 23.8508
1 43.9561 49.0977 26.1671
1 42.5396 46.6315 26.2598
1 45.3773 44.9238 23.876
1 46.796 47.3883 23.8366
1 46.8471 49.0696 26.2043
1 45.4088 46.6799 26.2508
1 48.283 44.8411 23.9637
1 49.5525 47.4639 23.9486
1 49.8476 49.0888 26.2158
1 48.3127 46.5798 26.3069
1 33.7079 49.8977 24.0007
1 36.6256 49.8419 23.9653
1 39.5692 49.7881 23.9191
1 42.5051 49.8857 23.7914
1 45.4147 49.9642 23.7739
1 48.2466 49.9609 23.8602
1 44.4496 32.7871 28.6548
1 47.0283 32.5081 28.6117
1 38.543 37.4761 28.7801
1 41.3061 37.2796 28.6191
1 42.8797 34.9113 28.6842
1 44.0688 37.4076 28.6944
1 45.6825 35.0881 28.7532
1 47.0735 37.5099 28.6973
1 48.4685 34.9318 28.5367
1 49.905 37.3526 28.5622
1 35.5353 42.3324 28.8536
1 37.0331 39.9529 28.7104
1 38.3192 42.3406 28.6998
1 39.866 39.8138 28.684
1 41.211 42.2823 28.5839
1 42.7106 39.8827 28.6924
1 44.1051 42.4773 28.6225
1 45.5588 39.9341 28.6095
1 46.9304 42.4838 28.5329
1 48.4862 39.9233 28.5765
1 49.8108 42.4178 28.5912
1 32.7509 47.527 28.755
1 34.099 44.979 28.6681
1 35.3825 47.4227 28.6857
1 36.8027 44.8089 28.7362
1 38.4002 47.3379 28.6634
1 39.7539 44.7707 28.6689
1 41.1373 47.4269 28.5799
1 42.5576 44.9853 28.6971
1 44.0004 47.4171 28.6402
1 45.535 45.0168 28.6184
1 46.8816 47.4276 28.5797
1 48.4821 44.9664 28.6051
1 49.8282 47.3917 28.5971
1 34.0261 49.9384 28.7961
1 36.9275 49.9142 28.6738
1 39.7337 49.9533 28.5814
1 42.5729 49.9138 28.4611
1 45.421 49.912 28.5689
1 48.3106 49.8648 28.4704
1 44.3684 34.1122 31.0123
1 47.242 33.9834 30.9262
1 49.9802 33.9691 31.0874
1 38.3572 39.057 31.1409
1 41.2714 38.9262 31.13
1 39.8415 36.7229 31.2027
1 44.1332 38.9697 31.0007
1 42.778 36.3934 31.0954
1 47.085 39.0428 31.0101
1 45.651 36.575 31.0811
1 49.9649 39.1203 30.83
1 48.5536 36.4169 30.9625
1 35.4298 43.9431 31.068
1 38.2835 43.9599 30.9645
1 36.9137 41.4784 31.0823
1 41.1495 43.9416 30.9624
1 39.8208 41.396 30.9876
1 44.1492 43.9495 30.9452
1 42.6228 41.5094 31.0534
1 47.0343 44.0833 30.8901
1 45.5924 41.4046 30.9619
1 49.9203 44.1545 30.9342
1 48.4512 41.6126 30.9258
1 32.7946 48.9379 31.0859
1 35.5378 49.0726 31.0603
1 34.1226 46.4393 31.0168
1 38.421 49.088 30.9586
1 36.898 46.4762 30.9073
1 41.2321 49.0074 30.9385
1 39.8488 46.5293 30.9663
1 43.9213 49.0703 30.9004
1 42.6359 46.5019 30.972
1 46.9014 49.0731 30.8175
1 45.4879 46.6518 30.9429
1 49.8323 49.0967 30.9672
1 48.4833 46.6107 30.9644
1 44.5283 34.1952 35.7432
1 47.7849 32.7783 33.1503
1 47.259 34.039 35.5833
1 50.3484 32.6614 33.5884
1 50.122 34.1273 35.7897
1 38.6302 37.5481 33.4542
1 38.4201 39.1368 35.8027
1 41.545 37.3286 33.4098
1 41.384 39.0994 35.6132
1 39.9111 36.8989 35.7753
1 43.3448 34.9291 33.414
1 44.3184 37.4362 33.4453
1 44.381 39.1036 35.7192
1 42.9153 36.5298 35.718
1 45.9256 34.9568 33.3451
1 47.1219 37.4384 33.3932
1 47.1965 39.2061 35.5634
1 45.7614 36.584 35.7636
1 48.7897 35.0566 33.4191
1 50.1049 37.5924 33.3667
1 50.0831 39.1367 35.7068
1 48.5593 36.6732 35.7127
1 35.7605 42.5424 33.585
1 35.5826 44.1121 35.7129
1 37.2548 40.0356 33.4346
1 38.5052 42.4644 33.3188
1 38.3904 44.1327 35.6911
1 37.1053 41.6163 35.8286
1 39.9144 39.8808 33.407
1 41.2714 42.4502 33.3469
1 41.3732 44.0961 35.6486
1 39.9172 41.5982 35.73
1 42.8277 39.9457 33.396
1 44.2623 42.3843 33.3124
1 44.2142 44.1778 35.6534
1 42.8526 41.601 35.6824
1 45.7472 39.9229 33.3284
1 47.1135 42.5077 33.2408
1 47.0556 44.1222 35.6457
1 45.7293 41.6416 35.6448
1 48.616 40.012 33.246
1 49.984 42.4554 33.3148
1 49.9849 44.1602 35.585
1 48.6172 41.7723 35.7303
1 32.896 47.3147 33.3857
1 32.8633 48.8701 35.7525
1 34.2931 44.9216 33.3296
1 35.5069 47.4435 33.4168
1 35.5304 49.0501 35.6559
1 34.1264 46.4642 35.6831
1 37.0895 44.9575 33.3474
1 38.4732 47.4361 33.2973
1 38.3512 49.0612 35.5957
1 36.9609 46.6244 35.7839
1 39.8769 45.0737 33.4227
1 41.398 47.4044 33.372
1 41.2245 49.1935 35.6924
1 39.833 46.5797 35.7712
1 42.7524 44.8482 33.2715
1 44.2284 47.5263 33.3129
1 44.0849 49.1567 35.5417
1 42.7749 46.5796 35.7145
1 45.7078 44.9034 33.296
1 47.1023 47.4394 33.3106
1 46.8941 49.1621 35.5347
1 45.5702 46.6259 35.6018
1 48.5724 44.9719 33.278
1 49.9585 47.4715 33.3495
1 49.8499 49.1541 35.536
1 48.4625 46.6881 35.6494
1 34.0159 49.8402 33.3962
1 36.9033 50.0199 33.3316
1 39.8491 50.0119 33.3742
1 42.7372 49.9057 33.1881
1 45.6107 49.9751 33.141
1 48.5046 50.0469 33.2342
1 44.3594 34.3076 40.3372
1 47.3326 32.7226 37.9642
1 47.1422 34.0077 40.4112
1 49.9242 32.7016 38.0516
1 49.978 34.2482 40.324
1 38.5736 37.6354 38.0489
1 38.475 39.1937 40.338
1 41.4278 37.4785 38.0089
1 41.4361 39.1997 40.3008
1 39.9835 36.9012 40.3565
1 43.0513 35.0972 38.0051
1 44.2747 37.5875 38.0747
1 44.2043 39.2298 40.3499
1 42.7737 36.7241 40.3395
1 45.7993 34.9252 38.0203
1 47.099 37.5396 38.0684
1 47.075 39.1728 40.4196
1 45.6872 36.6482 40.395
1 48.5417 35.0824 38.0565
1 50.0187 37.6148 38.0168
1 50.0623 39.1028 40.4707
1 48.555 36.6588 40.3824
1 35.6946 42.541 38.1148
1 35.5925 44.1435 40.3862
1 37.0968 40.0903 38.1643
1 38.5246 42.5099 38.0343
1 38.4603 44.0739 40.415
1 37.0465 41.651 40.3574
1 40.0016 39.982 37.9831
1 41.4276 42.5805 38.0511
1 41.3558 44.1763 40.3717
1 39.941 41.7058 40.3127
1 42.8142 39.9571 37.9742
1 44.2381 42.4167 38.0167
1 44.3203 44.1039 40.418
1 42.7881 41.6858 40.4468
1 45.7262 39.9703 38.0567
1 47.0683 42.4608 38.0252
1 47.235 44.1457 40.4024
1 45.7883 41.6337 40.4819
1 48.6044 40.0381 38.0561
1 50.0581 42.5513 38.0572
1 49.8957 44.0891 40.4231
1 48.5163 41.646 40.4169
1 32.7319 47.3437 37.909
1 32.9015 48.9523 40.4037
1 34.2615 44.9776 38.0561
1 35.4595 47.5726 38.0779
1 35.5643 49.0945 40.4425
1 34.0298 46.4728 40.3604
1 37.0633 45.0333 38.0682
1 38.3486 47.4586 38.0696
1 38.3704 49.211 40.3412
1 36.965 46.5268 40.3337
1 39.8772 45.0207 38.0326
1 41.3137 47.5777 38.0367
1 41.2791 49.1494 40.3392
1 39.8985 46.6199 40.3053
1 42.7792 45.0249 38.0602
1 44.1783 47.4979 37.9931
1 44.1833 49.1719 40.3193
1 42.805 46.654 40.3811
1 45.6496 45.0044 38.0941
1 47.0964 47.5769 37.9716
1 46.9773 49.169 40.2348
1 45.5892 46.6539 40.3512
1 48.5901 45.0212 37.9733
1 49.8956 47.5711 37.9734
1 49.9242 49.1836 40.247
1 48.4244 46.607 40.2785
1 33.9949 49.9355 38.1041
1 36.8925 49.9672 37.974
1 39.7838 49.9876 37.9931
1 42.6424 50.0221 37.9921
1 45.5505 50.031 37.9313
1 48.3761 50.0779 37.8866
1 44.6696 32.8604 42.5857
1 47.3225 32.6578 42.9991
1 38.4955 37.7212 42.6206
1 41.3061 37.4403 42.7068
1 42.9117 34.9702 42.5638
1 44.1074 37.4093 42.725
1 45.8272 35.1184 42.7683
1 47.046 37.6435 42.7723
1 48.555 35.0622 42.7184
1 49.8492 37.5302 42.7962
1 35.684 42.4687 42.7055
1 37.1691 40.1398 42.7581
1 38.4479 42.5251 42.7426
1 39.8965 39.9932 42.6288
1 41.2918 42.5708 42.7799
1 42.7202 40.0087 42.8017
1 44.0841 42.4853 42.7891
1 45.5843 39.9465 42.8697
1 47.0378 42.4558 42.8308
1 48.5918 40.0412 42.8148
1 49.9635 42.446 42.6833
1 32.8617 47.5177 42.6588
1 34.1565 44.9943 42.7683
1 35.536 47.4356 42.6881
1 36.9964 44.8698 42.7634
1 38.3274 47.5316 42.6204
1 39.9202 45.0226 42.7304
1 41.2659 47.5461 42.6611
1 42.6978 45.0538 42.7525
1 44.1513 47.4365 42.6802
1 45.5284 45.019 42.752
1 47.0717 47.5261 42.6731
1 48.5004 45.045 42.6863
1 49.9551 47.5434 42.6565
1 34.0615 49.9643 42.792
1 36.9993 49.9961 42.6429
1 39.8389 50.1884 42.7301
1 42.7349 49.9832 42.6403
1 45.686 49.9753 42.7489
1 48.5228 50.0056 42.6134
1 44.0627 34.2801 44.9955
1 46.9008 34.1538 45.1439
1 49.8002 34.0243 44.9634
1 38.2973 39.2274 45.0543
1 41.1695 39.1075 45.126
1 39.7004 36.7596 44.9093
1 44.1217 39.1469 45.1001
1 42.5745 36.6868 45.0766
1 47.0079 39.1666 45.1637
1 45.5154 36.6668 45.1885
1 49.9406 39.139 45.0929
1 48.3204 36.5763 45.1374
1 35.4652 43.9788 45.1101
1 38.3857 44.0976 45.0781
1 36.872 41.6656 45.1201
1 41.2408 44.1116 45.1121
1 39.8063 41.4597 45.1201
1 44.1338 44.1359 45.0205
1 42.6649 41.6404 45.1537
1 47.011 44.1553 45.0818
1 45.5682 41.6519 45.1616
1 49.8791 44.1172 45.0662
1 48.4444 41.6903 45.1511
1 32.8295 48.929 45.1471
1 35.5878 49.0777 45.0673
1 34.0458 46.5224 45.0038
1 38.3938 49.2494 44.9713
1 36.8861 46.4795 45.0273
1 41.2203 49.2132 44.9952
1 39.6861 46.6563 44.9806
1 44.0956 49.1376 45.0659
1 42.4978 46.648 45.0281
1 47.0657 49.1955 45.1052
1 45.6545 46.7725 45.0887
1 49.9354 49.2248 44.985
1 48.489 46.6494 45.0188
1 44.1989 34.0562 49.7835
1 44.1908 32.7978 47.316
1 47.0465 33.9144 49.7851
1 46.8377 32.6091 47.5094
1 49.8906 33.7436 49.737
1 38.3978 37.6346 47.2678
1 38.3059 39.097 49.7709
1 41.1255 37.3451 47.4215
1 41.2679 38.9654 49.7279
1 39.7784 36.8327 49.6846
1 42.7083 35.0032 47.3079
1 44.0647 37.438 47.4299
1 44.0892 38.9621 49.8214
1 42.6407 36.3261 49.7506
1 45.5039 35.037 47.5382
1 47.0214 37.4978 47.511
1 46.9244 39.0386 49.8508
1 45.4642 36.5461 49.9514
1 48.42 34.9108 47.5233
1 49.8117 37.4284 47.5005
1 49.751 39.1254 49.7265
1 48.4119 36.5057 49.8007
1 35.5769 42.4461 47.4367
1 35.5186 43.9657 49.7289
1 36.9671 40.007 47.4291
1 38.3354 42.4205 47.3835
1 38.3643 44.0612 49.773
1 36.9042 41.4875 49.8461
1 39.7661 39.8487 47.5488
1 41.1349 42.4392 47.4273
1 41.2244 44.0328 49.7237
1 39.7575 41.446 49.8082
1 42.6566 39.956 47.4167
1 44.0563 42.5194 47.3718
1 44.0701 44.1055 49.8166
1 42.5953 41.5523 49.775
1 45.4844 40.0038 47.4937
1 46.8961 42.4678 47.5606
1 46.9285 44.0195 49.8271
1 45.4452 41.5527 49.8319
1 48.4356 40.0139 47.4618
1 49.8474 42.4166 47.4303
1 49.8371 44.2186 49.7715
1 48.2943 41.5681 49.8246
1 32.8946 47.4415 47.5409
1 32.7942 49.0396 49.7497
1 34.198 44.9418 47.357
1 35.4657 47.3903 47.2975
1 35.4629 49.1335 49.6277
1 34.1592 46.5741 49.7665
1 36.9768 44.9042 47.3889
1 38.3463 47.4887 47.2867
1 38.3502 49.1104 49.617
1 36.9519 46.5826 49.6952
1 39.7645 44.9454 47.3922
1 41.1705 47.4515 47.3551
1 41.2878 49.0924 49.725
1 39.8087 46.6431 49.6737
1 42.6744 44.921 47.3493
1 44.0884 47.4464 47.3963
1 44.1199 49.055 49.7159
1 42.6274 46.5519 49.6887
1 45.5323 45.0295 47.3938
1 47.0296 47.4626 47.4784
1 46.9124 49.1351 49.6631
1 45.4614 46.5863 49.7834
1 48.3453 44.8562 47.4096
1 49.9253 47.4042 47.3785
1 49.8907 49.0804 49.6824
1 48.3101 46.5359 49.8581
1 33.9512 49.937 47.3481
1 36.9154 49.9404 47.3761
1 39.6959 49.9602 47.3294
1 42.7046 49.9615 47.377
1 45.5677 49.9285 47.3811
1 48.5503 49.97 47.3647
1 44.3529 34.0013 54.4889
1 44.7911 32.5726 52.045
1 47.1097 33.8252 54.51
1 47.3502 32.5307 52.1134
1 50.0502 33.8672 54.486
1 38.711 37.3508 52.0903
1 38.5556 39.0166 54.4044
1 41.436 37.1587 52.1818
1 41.3457 38.9348 54.5843
1 39.9483 36.6518 54.4798
1 43.0731 34.7692 52.1508
1 44.2084 37.3665 52.273
1 44.1255 39.052 54.5817
1 42.7531 36.3946 54.5521
1 45.8644 34.886 52.1763
1 47.1027 37.4263 52.1759
1 47.0465 38.9273 54.4688
1 45.5707 36.4864 54.5669
1 48.6863 34.8595 52.1065
1 49.932 37.4608 52.0092
1 49.934 38.9194 54.4119
1 48.4395 36.3678 54.4157
1 35.8645 42.3791 51.9989
1 35.499 43.97 54.3896
1 37.2525 39.9005 52.1839
1 38.558 42.3899 52.0796
1 38.3064 44.0289 54.4483
1 36.9829 41.5062 54.3522
1 39.9569 39.6764 52.0187
1 41.2689 42.4401 52.1652
1 41.3 44.0076 54.4518
1 39.8421 41.4398 54.4697
1 42.6898 39.8046 52.1269
1 44.0668 42.3868 52.1073
1 44.1589 44.0097 54.4222
1 42.699 41.4834 54.4743
1 45.5924 39.9228 52.135
1 47.0028 42.4817 52.1303
1 46.9286 43.991 54.483
1 45.6078 41.5069 54.4963
1 48.4587 39.9309 52.1582
1 49.9288 42.4076 52.043
1 49.8722 44.099 54.3907
1 48.5016 41.5045 54.4552
1 32.8529 47.4618 52.0389
1 32.6611 48.956 54.3419
1 34.3718 44.8873 52.1013
1 35.4659 47.4438 52.0818
1 35.3779 49.0587 54.359
1 34.003 46.5185 54.3169
1 36.9982 44.918 52.085
1 38.3254 47.5074 52.0111
1 38.3526 49.0607 54.3863
1 36.8495 46.4833 54.3389
1 39.8431 44.938 52.0482
1 41.1905 47.457 52.096
1 41.0831 49.0496 54.3896
1 39.7553 46.49 54.4471
1 42.6408 44.9661 52.1335
1 44.0256 47.3879 52.0613
1 44.0722 49.1093 54.2792
1 42.6273 46.68 54.3834
1 45.5619 44.9131 52.0802
1 46.9409 47.5228 52.0662
1 47.076 49.1102 54.3845
1 45.5186 46.51 54.4113
1 48.5035 44.9735 52.0882
1 49.9096 47.495 52.0734
1 49.927 49.1328 54.4177
1 48.4547 46.606 54.3903
1 33.9454 49.9639 51.9893
1 36.815 49.8685 52.0654
1 39.809 49.93 51.906
1 42.5479 49.9607 52.0652
1 45.5507 50.0073 51.9848
1 48.425 50.0671 52.0324
1 44.3362 34.0547 59.2066
1 44.4563 32.6467 56.883
1 47.1929 33.9351 59.2058
1 47.1126 32.4888 56.7689
1 50.0399 33.9857 59.1184
1 38.6795 37.6496 56.8833
1 38.4834 39.2201 59.1597
1 41.381 37.2482 56.983
1 41.22 39.1389 59.1405
1 39.8916 36.8298 59.2331
1 43.0458 34.9503 56.8456
1 44.2186 37.4515 56.9294
1 44.1124 39.0722 59.2177
1 42.7628 36.4879 59.2814
1 45.8361 34.9525 56.8842
1 47.0931 37.415 56.8287
1 46.9982 39.0143 59.2109
1 45.6316 36.4348 59.1821
1 48.6003 34.9068 56.7851
1 49.9846 37.415 56.7287
1 49.8268 39.0517 59.0533
1 48.3865 36.3351 59.1878
1 35.6722 42.5375 56.69
1 35.4373 44.172 59.0201
1 37.1865 40.0476 56.7888
1 38.4605 42.4311 56.8137
1 38.2476 44.098 59.0422
1 36.8493 41.6386 59.0384
1 39.9635 39.9112 56.8019
1 41.3327 42.4732 56.7781
1 41.1785 44.0959 59.2032
1 39.7297 41.6439 59.183
1 42.722 39.8592 56.849
1 44.1199 42.5109 56.8395
1 44.1531 44.1728 59.1207
1 42.6184 41.6951 59.1622
1 45.6204 39.9491 56.8551
1 46.9811 42.4224 56.8341
1 46.9254 44.092 59.1565
1 45.4888 41.5691 59.1616
1 48.4534 39.9256 56.8074
1 49.8299 42.4947 56.8748
1 49.8404 44.1245 59.0858
1 48.3668 41.5761 59.1509
1 32.7064 47.4684 56.6326
1 32.6019 48.9595 58.999
1 34.2364 45.0358 56.6814
1 35.373 47.4532 56.7001
1 35.3367 49.0875 58.9778
1 33.855 46.6192 59.1297
1 36.9343 44.9388 56.6815
1 38.2682 47.3523 56.8208
1 38.2575 49.193 59.0697
1 36.7583 46.6745 59.1205
1 39.8939 44.9463 56.8269
1 41.1542 47.4609 56.7838
1 41.1282 49.0946 59.0757
1 39.7339 46.5443 59.1509
1 42.7153 44.9451 56.7544
1 44.0128 47.4517 56.6658
1 43.9812 49.1516 59.0588
1 42.6048 46.6724 58.9887
1 45.5272 44.9065 56.7062
1 46.9206 47.4314 56.7399
1 46.8367 49.125 59.097
1 45.5664 46.6631 59.0982
1 48.3787 44.906 56.8371
1 49.7508 47.5391 56.6681
1 49.8259 49.2316 59.1325
1 48.4534 46.6296 59.1078
1 33.8171 49.9496 56.6765
1 36.7933 49.8919 56.6508
1 39.7207 49.9648 56.6804
1 42.5951 49.9566 56.6787
1 45.4815 49.8815 56.5964
1 48.3863 50.057 56.7798
1 44.0882 34.1883 63.9853
1 47.1037 32.6136 61.5675
1 46.9177 33.8003 63.9818
1 49.7416 32.5035 61.3702
1 49.7955 33.7951 63.9194
1 38.6062 37.6626 61.4719
1 38.2584 39.0581 63.7722
1 41.3517 37.4289 61.5516
1 41.2001 38.9967 63.9258
1 39.6781 36.8055 63.983
1 42.892 35.0371 61.5736
1 44.1477 37.4127 61.4985
1 44.0688 39.0163 63.8441
1 42.571 36.4625 63.8878
1 45.5745 34.8166 61.6103
1 47.0104 37.4271 61.6224
1 46.9033 39.0291 63.8781
1 45.4152 36.4699 63.9255
1 48.3617 34.9136 61.5956
1 49.8132 37.4248 61.4389
1 49.8173 38.9756 63.8316
1 48.1943 36.4031 63.9216
1 35.5285 42.502 61.2482
1 35.2318 43.9354 63.6752
1 37.103 40.0054 61.3472
1 38.2808 42.4566 61.405
1 38.1708 44.0583 63.794
1 36.7882 41.5883 63.7353
1 39.9186 39.9648 61.5469
1 41.3057 42.4879 61.5212
1 41.1094 43.9794 63.8327
1 39.5632 41.6154 63.8037
1 42.6899 39.8587 61.5204
1 44.0875 42.4356 61.5209
1 44.0265 44.0743 63.8377
1 42.5208 41.4721 63.8549
1 45.5965 40.0025 61.4853
1 46.9604 42.3591 61.5512
1 46.8518 44.0298 63.8296
1 45.4259 41.5118 64.0293
1 48.3988 39.9078 61.4623
1 49.8668 42.348 61.5409
1 49.724 44.0621 63.8741
1 48.3204 41.5501 63.9053
1 32.558 47.3782 61.4249
1 32.577 48.8586 63.7495
1 34.0648 44.9372 61.3268
1 35.3164 47.2785 61.4791
1 35.2091 49.0611 63.7019
1 33.5654 46.3717 63.6908
1 36.8307 44.8774 61.5027
1 38.248 47.46 61.4797
1 38.1288 49.0422 63.848
1 36.6355 46.4945 63.8324
1 39.6835 44.8771 61.4721
1 41.1307 47.3638 61.4884
1 41.0497 48.9972 63.7082
1 39.6005 46.4819 63.8188
1 42.6389 44.9154 61.4655
1 43.9927 47.4385 61.4249
1 43.9556 49.071 63.8015
1 42.4775 46.4848 63.7799
1 45.5063 44.8876 61.408
1 46.8481 47.495 61.4738
1 46.89 49.1101 63.7615
1 45.3804 46.5441 63.774
1 48.3868 44.9097 61.5594
1 49.7254 47.4706 61.5013
1 49.6871 49.1123 63.8738
1 48.2523 46.4998 63.7909
1 33.7925 49.8412 61.4043
1 36.7452 49.8574 61.4385
1 39.6147 49.9369 61.5172
1 42.5059 49.9482 61.4207
1 45.4073 49.9454 61.5049
1 48.2466 49.9659 61.4163
1 43.8656 34.0738 68.6021
1 47.287 32.6009 66.3666
1 46.7533 33.9191 68.6724
1 49.9614 32.502 66.453
1 49.5547 33.8169 68.6646
1 38.4237 37.5283 66.2513
1 37.9083 39.0075 68.5192
1 41.1167 37.309 66.3008
1 40.8748 39.0808 68.5597
1 39.5016 36.833 68.7063
1 42.7346 34.873 66.2616
1 43.9722 37.2766 66.3118
1 43.798 38.9579 68.673
1 42.449 36.4587 68.5672
1 45.5454 34.7839 66.3648
1 46.8605 37.2427 66.2579
1 46.6982 38.9058 68.6548
1 45.2312 36.5433 68.6989
1 48.4977 34.9123 66.2602
1 49.6424 37.3747 66.3077
1 49.6999 38.9361 68.6517
1 48.1334 36.5223 68.6082
1 35.532 42.4083 66.1022
1 35.163 43.9669 68.4426
1 36.9968 40.0014 66.0579
1 38.1926 42.4011 66.152
1 37.9936 43.9565 68.4381
1 36.5408 41.5174 68.4778
1 39.7211 39.8229 66.1465
1 40.9799 42.3484 66.1594
1 40.8724 43.9786 68.5356
1 39.3614 41.4866 68.5602
1 42.5924 39.7598 66.2361
1 43.8515 42.439 66.2292
1 43.8488 44.0379 68.4444
1 42.2867 41.451 68.5698
1 45.4105 39.8352 66.2539
1 46.7639 42.3614 66.2298
1 46.6194 43.9618 68.5208
1 45.2498 41.4674 68.5664
1 48.2342 39.9124 66.2529
1 49.7747 42.3558 66.2532
1 49.5461 43.9213 68.5908
1 48.1172 41.4233 68.591
1 32.5017 47.2877 66.1476
1 32.5419 48.8877 68.4503
1 33.8455 44.8855 65.994
1 35.121 47.2983 66.0443
1 35.1963 49.0745 68.4469
1 33.7467 46.3912 68.383
1 36.6034 44.8304 66.1339
1 38.0387 47.2833 66.1356
1 38.0366 48.9395 68.4903
1 36.5744 46.4505 68.4835
1 39.6946 44.8856 66.2434
1 41.109 47.426 66.0693
1 40.968 48.9166 68.4185
1 39.4767 46.5665 68.5031
1 42.372 44.8313 66.1295
1 43.8437 47.2966 66.1942
1 43.843 48.9401 68.5087
1 42.3134 46.4766 68.4579
1 45.39 44.8367 66.1667
1 46.7634 47.3386 66.1091
1 46.7019 48.9781 68.4344
1 45.2508 46.4226 68.4731
1 48.1823 44.8121 66.2298
1 49.672 47.2568 66.2205
1 49.5272 48.8986 68.5879
1 48.1121 46.4705 68.5913
1 33.6576 49.8116 66.0724
1 36.6328 49.8103 66.1564
1 39.4809 49.8232 66.0364
1 42.3971 49.9462 66.0543
1 45.2443 49.8473 66.0846
1 48.161 49.8667 66.2019
1 43.8975 34.1138 73.3167
1 44.1759 32.6497 70.9847
1 46.6771 33.8194 73.3785
1 46.9283 32.5364 70.8558
1 49.4702 33.7386 73.3214
1 38.1411 37.6219 71.0104
1 38.0225 39.0606 73.4036
1 40.8423 37.2503 70.9596
1 40.9249 38.9541 73.3773
1 39.3863 36.7504 73.3693
1 42.6702 34.8571 70.9559
1 43.7721 37.3156 71.0139
1 43.7838 39.0581 73.3133
1 42.3139 36.4281 73.2777
1 45.401 34.9048 71.0109
1 46.704 37.2967 71.0487
1 46.7005 38.9852 73.3675
1 45.1983 36.5101 73.3957
1 48.2619 34.8258 71.0531
1 49.5695 37.2992 71.0077
1 49.5235 38.8774 73.3759
1 48.0848 36.307 73.3782
1 35.2147 42.4478 70.9865
1 35.0952 44.0082 73.2359
1 36.7568 40.0218 70.8362
1 38.0299 42.4848 70.8361
1 38.0056 44.0049 73.3161
1 36.5673 41.5569 73.218
1 39.5524 39.9038 70.9354
1 40.8813 42.3156 70.9051
1 40.9217 43.8463 73.2354
1 39.4829 41.4185 73.2906
1 42.3391 39.7704 70.9863
1 43.7912 42.2876 70.8915
1 43.8675 43.8239 73.2758
1 42.3055 41.4281 73.298
1 45.2223 39.7835 70.8797
1 46.6401 42.2967 70.9347
1 46.6959 43.8577 73.3565
1 45.3017 41.3843 73.3361
1 48.1254 39.7518 70.8731
1 49.5529 42.1947 70.861
1 49.5193 43.8728 73.2085
1 48.1242 41.4838 73.3036
1 32.4174 47.3747 70.7855
1 32.4058 48.7627 73.1644
1 33.8488 44.9322 70.8348
1 35.0595 47.3392 70.7469
1 35.1206 48.9367 73.2459
1 33.7004 46.3547 73.1966
1 36.5997 44.8563 70.8848
1 38.0698 47.3588 70.8029
1 38.0065 48.9566 73.1689
1 36.5143 46.4362 73.1349
1 39.5795 44.8543 70.8483
1 40.8818 47.2481 70.826
1 40.8022 48.9187 73.2349
1 39.4619 46.3974 73.1338
1 42.3864 44.7432 70.869
1 43.7853 47.2647 70.8248
1 43.6684 48.8764 73.2224
1 42.2436 46.4095 73.2591
1 45.2142 44.6998 70.9798
1 46.5565 47.3061 70.9551
1 46.5427 48.8307 73.1964
1 45.1233 46.3769 73.3234
1 48.0567 44.7536 70.8856
1 49.482 47.2796 70.9245
1 49.479 48.872 73.2617
1 48.071 46.3693 73.2364
1 33.7188 49.8451 70.8304
1 36.641 49.8048 70.9332
1 39.4513 49.8435 70.7746
1 42.2554 49.723 70.7602
1 45.0905 49.759 70.8499
1 47.971 49.8238 70.9651
1 43.9227 33.9616 77.9465
1 44.2901 32.6204 75.6696
1 46.6749 33.7707 78.1039
1 46.8429 32.2939 75.7617
1 49.4431 33.7355 78.119
1 38.1449 37.385 75.8089
1 37.9685 38.9169 78.0554
1 40.9711 37.128 75.6824
1 40.8953 38.8331 77.9635
1 39.4235 36.5566 78.0589
1 42.6063 34.8202 75.6109
1 43.8623 37.2972 75.74
1 43.7785 38.8343 78.1106
1 42.2975 36.3373 77.9766
1 45.3881 34.9391 75.6351
1 46.7537 37.2847 75.7485
1 46.6985 38.8353 78.0245
1 45.1699 36.3417 78.0671
1 48.1813 34.7172 75.7128
1 49.6 37.2052 75.6517
1 49.5152 38.7623 78.0593
1 48.0622 36.2828 78.1662
1 35.37 42.3844 75.6364
1 35.0333 43.8815 77.9304
1 36.715 39.9045 75.6688
1 38.0337 42.2582 75.4799
1 37.8592 43.8661 77.9244
1 36.5155 41.3975 77.9192