5538
Atoms. Timestep: 30000
1 42.6287 36.5192 5.11233
1 46.8229 35.8264 7.45181
1 45.4496 36.4939 4.94679
1 48.4491 33.8167 7.12853
1 49.9382 34.1439 4.97224
1 36.955 38.34 7.48152
1 35.6497 39.1615 5.23945
1 39.7318 38.1037 7.49702
1 39.6839 41.4555 5.13492
1 38.32 38.8949 5.1688
1 41.4796 36.004 7.61617
1 42.656 38.3806 7.43533
1 42.5801 41.4189 5.09789
1 41.1672 38.9274 5.05362
1 44.0768 35.8727 7.50625
1 45.452 38.2221 7.36631
1 45.4242 41.4362 5.02852
1 43.9798 38.8995 4.98684
1 48.2685 36.3282 4.93209
1 49.7579 40.8141 7.36375
1 49.7238 38.892 4.99446
1 46.8354 39.0321 4.94126
1 33.8674 43.1367 7.49814
1 32.4975 43.9256 5.2464
1 35.3978 40.6704 7.52458
1 36.6462 43.1175 7.4418
1 35.3112 43.8909 5.13099
1 34.0848 41.522 5.22095
1 38.2636 40.6692 7.5835
1 39.6005 43.1831 7.44801
1 38.2851 43.91 5.06177
1 36.8232 41.3983 5.09483
1 41.0511 40.6764 7.49183
1 42.4673 43.1593 7.48885
1 42.5103 46.4221 5.09485
1 41.1564 43.9342 5.17508
1 44.0133 40.7315 7.47437
1 45.3672 43.2008 7.33717
1 46.8329 44.0411 4.96346
1 44.025 44.07 5.07489
1 46.8131 40.6973 7.44347
1 50.9804 43.29 7.32105
1 49.5148 44.0844 5.08078
1 48.194 41.5459 5.10165
1 31.1394 47.9795 7.53177
1 32.2448 48.7122 5.09069
1 32.5036 45.5542 7.56885
1 33.692 47.9961 7.49071
1 35.1051 48.8153 5.19423
1 31.1425 46.2473 5.32756
1 35.2806 45.6927 7.5608
1 36.6376 48.1815 7.49139
1 38.1474 48.8102 5.0275
1 33.8442 46.2316 5.09451
1 38.0648 45.6251 7.4868
1 39.4286 48.0152 7.45778
1 40.9841 48.7955 5.00544
1 36.805 46.3465 5.17873
1 41.0653 45.6121 7.54193
1 42.2359 48.1586 7.4329
1 43.6399 50.5518 7.40707
1 39.6485 46.3557 5.15202
1 43.922 45.5394 7.4671
1 45.2171 48.0917 7.42239
1 48.0453 48.1553 7.34466
1 43.8178 48.9563 5.07884
1 48.1965 43.248 7.51566
1 49.5584 45.784 7.26345
1 50.8976 48.1958 7.36391
1 46.7509 45.7409 7.38952
1 32.2433 50.4694 7.4677
1 34.9462 50.5405 7.46279
1 37.8932 50.6505 7.44957
1 40.7514 50.6033 7.42545
1 46.5745 50.5325 7.37179
1 49.4981 50.6083 7.50863
1 44.0848 34.5375 12.1748
1 48.2856 38.3133 7.33782
1 46.9817 34.4099 12.0191
1 49.8431 36.0412 7.29045
1 49.8304 34.3592 12.1785
1 38.2709 37.5797 9.85164
1 38.0884 39.0866 12.1763
1 41.106 37.4937 9.87545
1 40.97 39.1759 12.281
1 39.7645 36.84 12.2526
1 42.623 35.1862 9.8698
1 44.0982 37.5016 9.75076
1 44.0036 39.1946 12.2542
1 42.5984 36.7371 12.2094
1 45.5031 35.0872 9.83574
1 46.9516 37.4713 9.80917
1 46.871 39.1714 12.2136
1 45.4919 36.7862 12.2556
1 48.3809 34.9567 9.57613
1 49.853 37.5774 9.77053
1 49.6696 39.3674 12.1288
1 48.3361 36.7237 12.1495
1 35.2833 42.3353 9.75682
1 35.1557 43.9697 12.2546
1 36.7854 39.8307 9.83301
1 38.0908 42.2828 9.84396
1 37.8956 44.0083 12.1841
1 36.6653 41.4471 12.1827
1 39.6329 39.8139 9.93961
1 41.0201 42.3621 9.85512
1 40.9984 44.1629 12.0752
1 39.4728 41.6571 12.2827
1 42.5437 39.9813 9.84834
1 43.9499 42.4969 9.83915
1 43.8902 44.2114 12.2061
1 42.4843 41.5797 12.1939
1 45.3656 39.9717 9.81066
1 46.7812 42.4351 9.80009
1 46.6925 44.2911 12.147
1 45.3991 41.6909 12.1271
1 48.2856 40.0036 9.75941
1 49.6349 42.4965 9.6846
1 49.6207 44.3259 12.1524
1 48.2782 41.8002 12.196
1 32.2609 47.262 9.91312
1 32.2653 48.7312 12.2659
1 33.834 44.8424 9.87202
1 35.0743 47.3734 9.95489
1 34.9299 48.9371 12.2352
1 33.5962 46.4089 12.2951
1 36.6038 44.8512 9.79214
1 37.9308 47.3172 9.83188
1 37.8134 48.9936 12.2946
1 36.4139 46.4922 12.29
1 39.4936 44.7317 9.85111
1 40.8149 47.335 9.76047
1 40.714 49.0497 12.1494
1 39.4313 46.4384 12.2661
1 42.5106 44.9036 9.87717
1 43.7532 47.3893 9.79676
1 43.8056 49.123 12.179
1 42.3563 46.755 12.0936
1 45.3744 44.908 9.7801
1 46.6438 47.4486 9.72715
1 46.6167 49.2986 12.1508
1 45.2867 46.6968 12.0677
1 48.1839 45.0494 9.77429
1 49.4799 47.4535 9.72998
1 49.5259 49.2404 12.1614
1 48.1289 46.8488 12.1621
1 33.4433 49.7165 9.90325
1 36.3981 49.7704 9.81915
1 39.2283 49.8381 9.81635
1 42.2333 49.8154 9.84562
1 45.0567 49.923 9.71632
1 48.0544 49.9397 9.71793
1 44.1073 34.3363 17.0226
1 50.0415 32.8443 14.4234
1 46.8695 34.2562 16.9351
1 52.7121 32.9721 14.3985
1 49.7406 34.2854 16.7943
1 38.4173 37.5532 14.669
1 38.1531 39.1359 16.9547
1 41.1597 37.3406 14.5706
1 40.944 39.1009 16.9144
1 39.6619 36.7981 17.0584
1 42.8342 35.0855 14.5479
1 43.9683 37.5224 14.5586
1 43.8627 39.1796 16.9983
1 42.5369 36.6561 16.9969
1 45.5719 34.9058 14.4516
1 46.8402 37.4935 14.6069
1 46.7258 39.2736 16.9559
1 45.3586 36.7016 16.823
1 48.2561 34.9893 14.4748
1 49.63 37.5563 14.5067
1 49.6306 39.2155 16.8643
1 48.1976 36.7121 16.8821
1 35.3503 42.313 14.6089
1 35.2174 43.8682 17.0144
1 36.8383 39.8916 14.6485
1 38.0254 42.3176 14.5974
1 38.0262 44.0586 16.9558
1 36.5878 41.5397 16.92
1 39.6796 39.8964 14.5635
1 40.9835 42.4593 14.5748
1 40.8676 44.1742 16.8453
1 39.4729 41.6128 16.8864
1 42.567 39.9474 14.5547
1 43.8022 42.4766 14.5034
1 43.7893 44.1689 16.8105
1 42.3979 41.6621 16.8616
1 45.4139 40.0317 14.5016
1 46.7274 42.5687 14.5506
1 46.6697 44.2905 16.8486
1 45.2351 41.7931 16.8332
1 48.2778 40.1007 14.5517
1 49.6251 42.6923 14.4653
1 49.5093 44.2756 16.8519
1 48.2645 41.6746 16.8908
1 32.5071 47.1986 14.7535
1 32.4092 48.8209 16.9304
1 33.9899 44.8949 14.6429
1 35.0594 47.351 14.6434
1 34.9997 49.0147 16.9828
1 33.6949 46.3203 17.0679
1 36.5462 44.7404 14.5445
1 37.941 47.242 14.635
1 37.8602 48.9909 16.9639
1 36.4412 46.4718 16.9317
1 39.3989 44.7361 14.4671
1 40.7865 47.327 14.6009
1 40.7958 49.0642 16.885
1 39.3805 46.532 17.0002
1 42.3562 45.0067 14.435
1 43.6717 47.5231 14.5094
1 43.703 49.1547 16.8823
1 42.2342 46.6899 16.8954
1 45.2027 45.0823 14.5563
1 46.6629 47.4521 14.4925
1 46.6486 49.2725 16.8726
1 45.0843 46.7613 16.824
1 48.0859 45.0558 14.4762
1 49.5395 47.5921 14.5267
1 49.5098 49.2981 16.9312
1 48.029 46.7907 16.8421
1 33.5027 49.7452 14.5403
1 36.379 49.7176 14.5764
1 39.2188 49.8082 14.5688
1 42.1911 49.9231 14.5069
1 45.1811 49.9919 14.5939
1 48.165 50.0659 14.6131
1 43.976 34.3093 21.704
1 44.2343 32.9279 19.4217
1 46.864 34.2191 21.7411
1 46.8515 32.831 19.2773
1 49.668 34.1816 21.5322
1 38.3471 37.6965 19.3929
1 38.1296 39.1844 21.7022
1 41.1288 37.4612 19.3154
1 41.047 39.2637 21.6892
1 39.6684 37.0026 21.724
1 42.6401 35.1551 19.3877
1 43.9278 37.69 19.355
1 43.9519 39.2941 21.6017
1 42.5328 36.7162 21.7171
1 45.4228 35.2771 19.2276
1 46.8086 37.6785 19.3096
1 46.7169 39.2319 21.6546
1 45.3808 36.7117 21.6737
1 48.2351 35.2268 19.2457
1 49.6822 37.5593 19.1837
1 49.5804 39.172 21.6099
1 48.1863 36.6725 21.688
1 35.3053 42.4865 19.3318
1 35.1561 43.9707 21.6412
1 36.8732 40.0897 19.3281
1 38.0514 42.4682 19.3109
1 38.0621 44.1039 21.6168
1 36.6727 41.6029 21.7491
1 39.6947 40.0464 19.1595
1 40.8994 42.6346 19.2847
1 41.0108 44.095 21.6607
1 39.5405 41.6372 21.5793
1 42.473 40.1541 19.3959
1 43.8511 42.6214 19.2349
1 43.8837 44.1888 21.5875
1 42.4892 41.7273 21.6255
1 45.4193 40.2314 19.1829
1 46.7547 42.721 19.1851
1 46.7034 44.3209 21.63
1 45.3214 41.8528 21.4902
1 48.2105 40.1322 19.2918
1 49.587 42.6002 19.2204
1 49.557 44.2322 21.5728
1 48.1784 41.6846 21.6018
1 32.4942 47.4335 19.3958
1 32.4288 48.8757 21.8019
1 33.9472 44.9085 19.4298
1 35.1183 47.403 19.2761
1 35.088 48.9866 21.8193
1 33.7259 46.3963 21.7849
1 36.627 44.9329 19.356
1 38.0049 47.329 19.2651
1 37.8679 49.0824 21.6979
1 36.5627 46.5076 21.6891
1 39.5692 44.9951 19.3249
1 40.9255 47.5009 19.3548
1 40.8513 49.1134 21.7384
1 39.412 46.5745 21.6823
1 42.3577 45.0449 19.2519
1 43.7877 47.6197 19.2411
1 43.707 49.0983 21.7469
1 42.2567 46.6834 21.6517
1 45.2392 45.1579 19.1221
1 46.6574 47.6221 19.286
1 46.6058 49.1363 21.6674
1 45.2349 46.6567 21.7142
1 48.18 45.1183 19.2333
1 49.4287 47.6684 19.289
1 49.576 49.273 21.7163
1 48.1359 46.8099 21.6081
1 33.6015 49.8304 19.3689
1 36.4788 49.8776 19.3872
1 39.4047 49.9472 19.2635
1 42.2895 50.016 19.2784
1 45.1432 50.0805 19.3243
1 48.0388 50.1352 19.3408
1 44.1679 34.2587 26.4602
1 44.4444 32.9401 24.0633
1 46.9781 34.0378 26.2682
1 47.0707 32.7529 23.9595
1 49.7162 33.9709 26.395
1 38.3226 37.5484 24.0203
1 38.1504 39.1404 26.4037
1 41.1714 37.4547 24.0574
1 41.052 38.9936 26.4403
1 39.6817 36.8014 26.3106
1 42.802 35.106 24.046
1 44.0284 37.6029 24.0317
1 43.9496 39.0236 26.3873
1 42.5178 36.5254 26.3599
1 45.6508 35.1801 24.0816
1 46.8779 37.6591 24.0289
1 46.8101 39.2049 26.3643
1 45.4588 36.6728 26.4654
1 48.4609 35.1735 24.0471
1 49.7607 37.5704 24.0375
1 49.6795 39.2874 26.26
1 48.3333 36.6619 26.3873
1 35.4142 42.545 24.0267
1 35.199 44.0218 26.4722
1 36.8984 39.9638 24.0293
1 38.1239 42.4753 23.9759
1 38.0987 43.946 26.3805
1 36.6467 41.5059 26.3421
1 39.6914 39.8569 24.0304
1 40.9661 42.4215 23.9788
1 41.0259 44.0483 26.2817
1 39.5441 41.5087 26.3919
1 42.5302 39.9467 24.0721
1 43.806 42.4996 23.8596
1 43.8229 43.9721 26.267
1 42.4099 41.504 26.3805
1 45.3725 39.9952 24.0225
1 46.6473 42.5251 23.9937
1 46.7109 44.1105 26.3349
1 45.2985 41.6328 26.3894
1 48.2149 40.1124 23.9221
1 49.5855 42.5463 23.8847
1 49.6149 44.216 26.298
1 48.1691 41.6836 26.3081
1 32.4687 47.4296 24.0882
1 32.4843 48.9798 26.4728
1 33.8897 44.9507 24.0863
1 35.1583 47.4306 24.1323
1 35.1497 48.9944 26.4415
1 33.8337 46.5147 26.4496
1 36.6254 44.9594 24.1618
1 38.062 47.4096 24.105
1 37.9896 49.013 26.5249
1 36.7123 46.4645 26.5256
1 39.5461 44.9434 23.9908
1 40.9389 47.4719 24.1423
1 40.831 48.966 26.5196
1 39.4528 46.4713 26.5021
1 42.4313 45.0025 23.9621
1 43.7553 47.4466 24.0195
1 43.8654 48.9948 26.4015
1 42.3134 46.5788 26.4206
1 45.4701 44.9445 24.019
1 46.6404 47.4004 24.0634
1 46.6996 49.1431 26.474
1 45.1696 46.588 26.388
1 48.2166 44.9449 23.9843
1 49.5934 47.3978 24.0036
1 49.4848 49.1587 26.4233
1 48.1131 46.6198 26.4091
1 33.6562 49.8946 24.1503
1 36.5953 49.8051 24.1612
1 39.4078 49.8449 24.1311
1 42.4103 49.8998 24.1377
1 45.3473 49.933 24.0878
1 48.1843 49.8905 24.13
1 44.6264 32.6604 28.925
1 47.2672 32.5805 28.533
1 38.3454 37.4601 28.6447
1 41.0762 37.1221 28.7076
1 42.7783 34.7959 28.7474
1 43.9252 37.3452 28.6705
1 45.7069 34.9533 28.7577
1 47.0196 37.5946 28.7202
1 48.4592 35.0162 28.7447
1 49.8383 37.5736 28.6689
1 35.5192 42.4711 28.71
1 36.8384 39.9134 28.7525
1 38.1621 42.3319 28.7408
1 39.6848 39.8148 28.7647
1 41.0142 42.2716 28.6927
1 42.5606 39.8687 28.7552
1 43.8804 42.4229 28.7721
1 45.4041 39.8817 28.6337
1 46.7448 42.432 28.7737
1 48.2567 40.0873 28.7182
1 49.6464 42.5199 28.6776
1 32.636 47.4847 28.8
1 34.0294 44.9855 28.7425
1 35.2595 47.4434 28.7867
1 36.7222 44.9225 28.824
1 38.1309 47.3509 28.8574
1 39.6303 44.8068 28.7765
1 40.9416 47.436 28.784
1 42.3835 44.8342 28.7403
1 43.8371 47.3784 28.8518
1 45.2823 44.9049 28.7509
1 46.6858 47.3221 28.7111
1 48.1926 44.9082 28.6336
1 49.5722 47.3799 28.8079
1 33.8223 49.9717 28.8104
1 36.6792 49.891 28.8443
1 39.3756 49.9069 28.9093
1 42.3828 49.8457 28.7869
1 45.198 49.9006 28.8017
1 48.1822 49.8848 28.7723
1 43.9158 34.0183 31.0818
1 46.819 33.8256 31.0052
1 49.5884 33.9233 31.1359
1 37.9855 38.9611 31.0473
1 41.0401 39.0033 31.0706
1 39.6212 36.7253 31.0266
1 43.9473 38.9843 31.0751
1 42.4162 36.4204 31.1585
1 46.7851 39.0447 31.0036
1 45.3635 36.3636 31.0907
1 49.594 39.0013 31.0294
1 48.1909 36.4205 31.0948
1 35.3033 43.9768 31.1161
1 38.0718 43.9398 31.083
1 36.5634 41.3711 31.0841
1 40.9483 43.9372 31.1276
1 39.4458 41.4517 31.0736
1 43.8154 43.9878 31.1315
1 42.4128 41.4282 31.1315
1 46.679 44.0177 31.0275
1 45.2871 41.5401 31.1189
1 49.626 44.1461 30.9993
1 48.2018 41.553 31.1182
1 32.4448 49.0482 31.0257
1 35.1437 49.0585 31.1127
1 33.7043 46.4811 31.1554
1 38.0237 49.0621 31.2833
1 36.5309 46.4627 31.0893
1 40.9172 49.0022 31.103
1 39.5196 46.5438 31.1485
1 43.8247 48.8817 31.1871
1 42.4078 46.5037 31.1638
1 46.7175 48.9954 31.132
1 45.2423 46.5226 31.1069
1 49.594 49.08 31.13
1 48.1466 46.5082 30.9748
1 44.0123 34.0271 35.7551
1 46.9758 32.5629 33.4526
1 46.9205 33.8812 35.76
1 49.5715 32.4622 33.4686
1 49.7124 33.8934 35.7298
1 38.2185 37.3783 33.3256
1 37.9999 38.8877 35.6603
1 40.9092 37.2169 33.4247
1 40.941 38.7891 35.7035
1 39.4541 36.5334 35.7508
1 42.6234 34.8178 33.4314
1 43.8956 37.2619 33.3766
1 43.885 38.8804 35.6491
1 42.4557 36.3149 35.7216
1 45.3022 34.77 33.4545
1 46.7392 37.3952 33.321
1 46.7952 39.0657 35.7313
1 45.3464 36.4066 35.7368
1 48.226 34.931 33.4927
1 49.6442 37.5111 33.3882
1 49.7015 39.064 35.7003
1 48.2491 36.4701 35.7856
1 35.3549 42.4523 33.4207
1 35.1056 43.9502 35.7393
1 36.7122 39.8175 33.4532
1 38.0422 42.3314 33.4081
1 37.97 43.8951 35.6689
1 36.6208 41.3703 35.7222
1 39.4171 39.8066 33.4164
1 40.9243 42.2326 33.3938
1 40.8567 43.9125 35.6823
1 39.529 41.3599 35.7647
1 42.4818 39.7504 33.3726
1 43.8731 42.2621 33.4025
1 43.8174 44.0534 35.7472
1 42.448 41.4151 35.723
1 45.3398 39.7957 33.3655
1 46.7457 42.3752 33.4391
1 46.6887 44.1014 35.74
1 45.3579 41.6286 35.7178
1 48.2104 39.9634 33.4584
1 49.6571 42.4551 33.3554
1 49.5862 44.1361 35.7357
1 48.1985 41.5814 35.7596
1 32.5226 47.5351 33.3107
1 32.4072 48.977 35.7705
1 33.844 45.0211 33.4745
1 35.1887 47.4308 33.4772
1 35.085 49.0379 35.9275
1 33.6673 46.5232 35.6962
1 36.5682 44.9303 33.4511
1 38.0189 47.378 33.4887
1 38.0313 49.0774 35.8735
1 36.5891 46.5191 35.8008
1 39.4979 44.878 33.4291
1 40.9179 47.3714 33.5057
1 40.9425 49.0271 35.831
1 39.4547 46.4887 35.7978
1 42.3587 44.7729 33.4565
1 43.7726 47.353 33.572
1 43.8124 49.0817 35.8978
1 42.3099 46.5072 35.7821
1 45.2491 44.854 33.5052
1 46.6168 47.3326 33.5451
1 46.6323 49.1031 35.7962
1 45.1852 46.515 35.8227
1 48.1397 44.919 33.429
1 49.4928 47.4352 33.3927
1 49.5893 49.1214 35.8387
1 48.1874 46.6419 35.8242
1 33.6935 49.8864 33.4805
1 36.5478 49.8654 33.5918
1 39.4435 49.832 33.4926
1 42.4021 49.8805 33.4509
1 45.1733 49.8768 33.5392
1 48.0938 49.8595 33.556
1 44.1105 34.0055 40.356
1 47.1027 32.544 38.2411
1 46.9237 33.9807 40.4747
1 49.7076 32.4677 38.0938
1 49.7964 33.801 40.4977
1 38.3448 37.5024 38.0262
1 37.982 39.0096 40.3641
1 41.0006 37.1527 37.9699
1 41.0206 38.9359 40.41
1 39.6279 36.6442 40.3132
1 42.6446 34.8959 38.0883
1 43.8625 37.2667 38.0204
1 43.9345 38.9665 40.2715
1 42.4463 36.3764 40.3698
1 45.4003 34.7618 38.0864
1 46.7734 37.4265 37.9995
1 46.7919 39.0351 40.3752
1 45.3085 36.4327 40.2821
1 48.3073 34.9144 38.154
1 49.6349 37.355 38.0785
1 49.7325 39.135 40.2373
1 48.3241 36.4896 40.4287
1 35.2772 42.427 38.0316
1 35.1105 43.949 40.348
1 36.7252 39.8902 38.0547
1 38.0094 42.2742 38.0707
1 37.9646 43.901 40.3948
1 36.5469 41.4144 40.4556
1 39.5834 39.764 38.0225
1 40.9523 42.3194 38.0947
1 40.8742 43.9114 40.4273
1 39.5012 41.3767 40.3565
1 42.4616 39.7197 38.0274
1 43.9022 42.2597 38.1366
1 43.7981 43.9271 40.4015
1 42.3807 41.4916 40.3836
1 45.3183 39.8063 37.9849
1 46.7621 42.3565 38.0094
1 46.7582 44.0336 40.287
1 45.2886 41.5904 40.3454
1 48.1851 39.85 38.0321
1 49.611 42.4314 37.9876
1 49.6028 44.129 40.3929
1 48.2125 41.5423 40.3432
1 32.4327 47.4482 38.0725
1 32.3848 48.9601 40.4513
1 33.8733 44.9423 37.9893
1 35.11 47.3356 38.0655
1 35.027 49.025 40.3626
1 33.6389 46.4828 40.3754
1 36.6201 44.7554 38.0435
1 37.9673 47.3144 38.1599
1 37.9821 49.0438 40.5282
1 36.4779 46.4684 40.4543
1 39.4892 44.7382 38.1242
1 40.8668 47.4076 38.2196
1 40.9388 48.9669 40.4367
1 39.4223 46.5288 40.4193
1 42.2856 44.8472 38.0334
1 43.7147 47.4225 38.1673
1 43.8772 49.027 40.5301
1 42.3658 46.4701 40.4447
1 45.2594 44.8525 38.0609
1 46.6489 47.5455 38.152
1 46.8177 49.1902 40.5336
1 45.196 46.5898 40.3545
1 48.1198 44.9691 38.0804
1 49.6189 47.5145 38.1353
1 49.666 49.1295 40.4581
1 48.2239 46.66 40.4066
1 33.5538 49.9177 38.1244
1 36.5835 49.8656 38.1922
1 39.466 49.8989 38.2499
1 42.4355 49.8849 38.2408
1 45.2897 50.0028 38.2552
1 48.2016 49.9981 38.0983
1 44.9777 32.7294 42.6317
1 47.6858 32.4133 42.492
1 38.3283 37.3632 42.6454
1 41.0333 37.2118 42.6565
1 43.0236 34.9053 42.5876
1 43.975 37.4557 42.5274
1 45.8281 35.0717 42.7579
1 46.9633 37.5572 42.7299
1 48.6075 34.8402 42.7433
1 49.8607 37.416 42.6604
1 35.3509 42.4835 42.8654
1 36.7405 39.712 42.6721
1 38.0868 42.2251 42.7653
1 39.5154 39.7185 42.6584
1 40.919 42.3719 42.723
1 42.4332 39.9264 42.585
1 43.8127 42.3617 42.6373
1 45.3797 39.8681 42.6776
1 46.7242 42.3764 42.5454
1 48.3297 40.0464 42.5369
1 49.7067 42.5788 42.5722
1 32.452 47.4138 42.7022
1 33.9364 44.9526 42.7547
1 35.1294 47.3548 42.6691
1 36.644 44.8855 42.7223
1 38.0347 47.4075 42.7713
1 39.3983 44.963 42.7393
1 40.9572 47.3713 42.6528
1 42.4193 44.8954 42.6948
1 43.8039 47.382 42.7979
1 45.2854 44.8956 42.6322
1 46.6787 47.4666 42.6602
1 48.0632 44.9413 42.6368
1 49.6463 47.4299 42.6502
1 33.7359 49.8348 42.7583
1 36.5971 49.9044 42.7391
1 39.5447 49.8496 42.8335
1 42.3659 49.9214 42.8307
1 45.3147 50.0173 42.7873
1 48.2389 50.0323 42.804
1 44.2286 34.0406 44.9741
1 46.9587 33.65 44.8178
1 49.8122 33.6342 45.0782
1 38.1 38.8262 44.9887
1 41.0142 39.0383 44.9905
1 39.681 36.7591 45.0503
1 43.8987 39.0313 44.9242
1 42.5821 36.3545 44.8837
1 46.8487 39.1361 44.9213
1 45.4154 36.7612 44.9089
1 49.7117 39.0102 44.9142
1 48.2877 36.3885 45.0377
1 35.2181 43.8953 45.0921
1 37.9962 43.9905 44.9615
1 36.6935 41.3669 45.0512
1 40.8866 43.9729 45.057
1 39.4887 41.4027 45.0182
1 43.8492 44.0163 44.9091
1 42.3373 41.5227 44.9593
1 46.6431 44.1345 44.994
1 45.3034 41.5611 44.9592
1 49.6296 44.0094 44.9514
1 48.1781 41.6543 44.9265
1 32.4963 48.7575 45.0776
1 35.2463 48.9402 45.1514
1 33.7909 46.4811 45.0771
1 38.13 49.1 45.0601
1 36.6483 46.4556 45.0924
1 41.0157 49.1412 45.0733
1 39.5421 46.5732 45.0717
1 43.8505 49.2148 45.1443
1 42.38 46.5121 45.047
1 46.6988 49.0617 44.9737
1 45.2779 46.5953 45.0183
1 49.6105 49.0356 45.0538
1 48.1943 46.5434 44.8374
1 44.5051 33.8715 49.4659
1 45.4766 32.5479 47.2506
1 47.1647 33.6951 49.4355
1 48.0641 32.4572 47.1327
1 49.9327 33.5084 49.5414
1 38.4522 37.4932 47.4562
1 38.2402 38.954 49.6877
1 41.1298 37.1852 47.2234
1 41.1474 38.9662 49.6684
1 39.7705 36.5746 49.6969
1 43.3059 34.8693 47.3452
1 43.9318 37.4358 47.2613
1 43.9813 39.0005 49.5839
1 42.5444 36.389 49.5909
1 45.9579 35.0271 47.1619
1 47.0273 37.4625 47.2802
1 46.7809 39.0019 49.5645
1 45.3379 36.4752 49.4565
1 48.7428 34.8661 47.3688
1 49.8375 37.4726 47.2656
1 49.7063 39.0277 49.6058
1 48.2024 36.3754 49.5939
1 35.3713 42.3308 47.413
1 35.2661 44.093 49.655
1 36.9979 39.9974 47.4528
1 38.1781 42.3707 47.35
1 38.2019 44.0734 49.6875
1 36.7595 41.5327 49.6488
1 39.6863 39.8798 47.2828
1 41.055 42.3973 47.2497
1 41.0006 44.0209 49.6165
1 39.6154 41.4488 49.6841
1 42.4884 39.8674 47.3045
1 43.9055 42.3999 47.3317
1 43.9477 44.0963 49.7026
1 42.5201 41.5024 49.5609
1 45.3596 39.8991 47.3228
1 46.8687 42.53 47.2668
1 46.8844 44.1134 49.6684
1 45.4434 41.6622 49.5853
1 48.3472 39.9937 47.327
1 49.8066 42.5099 47.2501
1 49.7237 44.0817 49.5727
1 48.2476 41.577 49.5965
1 32.5958 47.4402 47.4509
1 32.4849 48.9226 49.7995
1 33.9501 44.8367 47.3828
1 35.2847 47.3274 47.3854
1 35.1724 49.064 49.716
1 33.7269 46.5445 49.6946
1 36.6778 44.843 47.3706
1 38.1931 47.3725 47.3969
1 38.2122 49.112 49.7142
1 36.7002 46.58 49.7015
1 39.5478 44.8829 47.295
1 41.066 47.3068 47.4341
1 41.119 49.0369 49.8351
1 39.5942 46.5749 49.6723
1 42.439 44.8471 47.3627
1 43.9721 47.3269 47.3808
1 43.9512 49.0855 49.7709
1 42.4886 46.5553 49.7307
1 45.3072 44.8454 47.4246
1 46.8444 47.4749 47.2516
1 46.8597 49.1309 49.6968
1 45.4582 46.6299 49.6998
1 48.2527 44.9293 47.3074
1 49.6362 47.4798 47.2626
1 49.6815 49.1945 49.6414
1 48.3184 46.6804 49.661
1 33.7041 49.8861 47.4646
1 36.7561 49.8441 47.4446
1 39.6261 49.8476 47.3562
1 42.5055 49.8249 47.4642
1 45.2777 49.8651 47.4132
1 48.1876 49.9584 47.3346
1 44.4652 33.8506 53.8758
1 45.7876 32.4209 51.7582
1 47.1429 33.5061 53.9389
1 48.5521 32.2066 51.7109
1 50.0154 33.6036 54.0349
1 38.4342 37.5057 51.8991
1 38.1841 38.997 54.2228
1 41.1752 37.2078 51.9202
1 41.2209 38.9603 54.206
1 39.6716 36.6625 54.2566
1 43.1971 34.7313 51.6714
1 44.0926 37.3132 51.8776
1 43.918 38.8614 54.1945
1 42.5841 36.1746 54.0269
1 46.0108 34.9937 51.662
1 47.0142 37.4852 51.9398
1 46.8651 39.0443 54.2001
1 45.5265 36.4389 54.0729
1 48.6312 34.7661 51.7117
1 49.8318 37.3841 51.8724
1 49.7053 38.9026 54.1713
1 48.356 36.1797 54.2494
1 35.3025 42.5439 51.8985
1 35.1941 44.0647 54.2335
1 36.9072 39.962 52.0204
1 38.1579 42.3439 51.9588
1 38.1283 43.9844 54.3214
1 36.5684 41.4771 54.2805
1 39.8123 39.7709 51.98
1 40.9845 42.3805 51.9213
1 40.9421 43.9838 54.2152
1 39.5158 41.4534 54.1486
1 42.5978 39.8657 51.8632
1 43.8769 42.3864 51.9539
1 43.8274 44.0028 54.242
1 42.3579 41.4386 54.2545
1 45.4854 39.8716 51.8725
1 46.8107 42.4406 51.9848
1 46.8434 44.062 54.3021
1 45.4513 41.584 54.2116
1 48.3997 40.0256 51.886
1 49.7237 42.5468 51.8822
1 49.7252 44.1447 54.2296
1 48.2687 41.606 54.2753
1 32.5389 47.4279 52.047
1 32.3907 48.9543 54.2771
1 33.9063 45.0196 51.985
1 35.3074 47.3981 52.0105
1 35.1998 49.1373 54.3325
1 33.8588 46.6472 54.2767
1 36.7384 44.8142 52.0063
1 38.1327 47.4415 52.0489
1 38.1011 49.1057 54.3407
1 36.7047 46.5931 54.388
1 39.6531 44.852 51.9822
1 40.9932 47.4599 52.0784
1 40.9069 49.1064 54.3944
1 39.5445 46.5271 54.2846
1 42.5303 44.9026 51.9823
1 43.9049 47.4297 51.9486
1 43.9364 49.0394 54.2793
1 42.3411 46.5674 54.2733
1 45.3932 45.03 52.0401
1 46.8301 47.6136 52.0264
1 46.8382 49.1386 54.3917
1 45.3287 46.5393 54.288
1 48.2499 45.0382 51.8603
1 49.7475 47.5199 51.8996
1 49.6845 49.1595 54.2472
1 48.2893 46.6022 54.2272
1 33.8868 49.9679 52.0875
1 36.7051 49.9337 52.1073
1 39.5607 49.983 52.1382
1 42.5207 50.0185 52.1709
1 45.4248 50.0928 52.1147
1 48.1986 50.104 52.0462
1 44.3756 34.0555 58.5333
1 44.9714 32.4431 56.1537
1 47.2758 33.9184 58.6041
1 47.633 32.312 56.3638
1 50.0678 33.7299 58.7109
1 38.3676 37.5056 56.573
1 38.1883 39.045 58.8422
1 41.2972 37.2087 56.3908
1 41.1407 38.975 58.7514
1 39.7433 36.6255 58.6855
1 43.1984 34.7189 56.2737
1 44.102 37.2121 56.3947
1 43.9902 38.8723 58.8371
1 42.6103 36.3138 58.6416
1 46.0075 34.8149 56.2563
1 47.0411 37.3929 56.3887
1 46.9642 38.9382 58.8295
1 45.5762 36.484 58.7343
1 48.7467 34.7225 56.3911
1 49.9462 37.4551 56.4117
1 49.8022 38.9967 58.7334
1 48.5043 36.4565 58.763
1 35.4144 42.4845 56.517
1 35.2862 44.0869 58.8909
1 36.963 39.9757 56.5902
1 38.1037 42.3322 56.4883
1 38.0973 43.942 58.979
1 36.5976 41.4946 58.8988
1 39.7104 39.751 56.4197
1 41.0256 42.3054 56.5515
1 41.0592 44.0112 58.962
1 39.3942 41.4129 58.8524
1 42.6321 39.7524 56.5775
1 43.976 42.319 56.5227
1 43.9812 43.9849 58.8402
1 42.496 41.5117 58.9035
1 45.4375 39.8356 56.5017
1 46.8596 42.3264 56.5575
1 46.7901 44.0057 58.8056
1 45.4001 41.472 58.8392
1 48.4448 39.8883 56.443
1 49.9052 42.4889 56.4408
1 49.8309 44.0991 58.8485
1 48.3632 41.478 58.7575
1 32.5895 47.5272 56.6515
1 32.6414 48.9718 59.0452
1 33.9831 45.0485 56.5875
1 35.2529 47.4722 56.6857
1 35.3873 49.1538 58.9676
1 33.842 46.5992 58.9768
1 36.6918 44.8815 56.6265
1 38.2764 47.5154 56.6336
1 38.2013 49.1175 59.0309
1 36.6995 46.594 58.9893
1 39.5415 44.7825 56.6069
1 41.0265 47.3608 56.5357
1 40.9728 48.9925 58.9156
1 39.5834 46.4345 58.9661
1 42.4194 44.8645 56.5172
1 43.8862 47.3778 56.5772
1 43.8935 49.0877 59.0077
1 42.4026 46.5277 58.9712
1 45.3167 44.8245 56.5706
1 46.9122 47.3911 56.6082
1 46.7997 49.1356 58.8555
1 45.3432 46.6604 58.8374
1 48.2761 44.8856 56.5866
1 49.7686 47.5301 56.5327
1 49.7954 49.1574 58.9078
1 48.2374 46.5883 58.7782
1 33.773 49.8978 56.7849
1 36.729 49.8982 56.7251
1 39.6035 50.0194 56.6151
1 42.4297 49.9513 56.6404
1 45.3789 49.9272 56.5948
1 48.3069 49.9661 56.5686
1 44.259 34.1931 63.1504
1 47.5016 32.5917 61.1007
1 47.2152 33.9189 63.4238
1 50.1303 32.4662 61.027
1 49.9747 33.8756 63.4294
1 38.5332 37.4381 61.0226
1 38.1919 39.007 63.3377
1 41.2785 37.105 61.0229
1 41.1696 38.918 63.4504
1 39.7869 36.7247 63.3472
1 43.0568 34.87 60.7793
1 44.2182 37.2079 61.0777
1 44.0698 38.9607 63.3484
1 42.7097 36.3968 63.2578
1 45.8333 34.7237 60.914
1 47.1268 37.3092 61.0598
1 46.8551 38.9954 63.354
1 45.6082 36.4149 63.4064
1 48.7733 34.8169 61.0972
1 50.0233 37.3241 61.0004
1 49.8053 38.991 63.4108
1 48.4312 36.4963 63.391
1 35.3981 42.3922 61.2455
1 35.164 43.9198 63.5788
1 36.9002 39.8335 61.0751
1 38.0812 42.2822 61.1786
1 38.1364 43.9026 63.5989
1 36.7155 41.5008 63.5812
1 39.8077 39.7664 61.2041
1 41.0936 42.2783 61.1628
1 40.9556 43.8591 63.5696
1 39.6236 41.4004 63.5426
1 42.5897 39.6722 61.1154
1 44.0396 42.2482 61.1732
1 43.9552 43.9351 63.4625
1 42.5808 41.5109 63.4279
1 45.4793 39.7341 61.0705
1 46.8895 42.2616 61.0954
1 46.8322 44.0253 63.4677
1 45.4298 41.5023 63.5064
1 48.4183 39.8628 61.1048
1 49.7921 42.4468 61.1433
1 49.7189 44.0887 63.4634
1 48.4292 41.4817 63.5209
1 32.5947 47.5026 61.278
1 32.5228 48.9518 63.571
1 34.0119 45.0043 61.2847
1 35.3417 47.4807 61.284
1 35.2314 49.0115 63.6835
1 33.8582 46.4974 63.563
1 36.6516 44.8135 61.2829
1 38.1714 47.3284 61.2646
1 38.1733 48.9523 63.6404
1 36.6802 46.4406 63.6239
1 39.5765 44.7172 61.3011
1 40.9822 47.3566 61.231
1 41.0712 48.9484 63.5961
1 39.5125 46.3756 63.5788
1 42.3398 44.9007 61.2424
1 43.8683 47.311 61.2963
1 44.0307 48.9655 63.5829
1 42.441 46.4238 63.5947
1 45.4091 44.7948 61.1504
1 46.6734 47.3814 61.1073
1 46.8798 49.0379 63.489
1 45.3401 46.3876 63.521
1 48.2092 44.8585 61.1083
1 49.6743 47.3631 61.191
1 49.7639 49.0958 63.4883
1 48.3078 46.5105 63.4587
1 33.7735 50.0258 61.2787
1 36.739 49.9076 61.3278
1 39.6058 49.8582 61.3401
1 42.4637 49.861 61.2914
1 45.3614 49.9242 61.2714
1 48.1842 50.0242 61.2442
1 44.2353 33.9017 68.0705
1 47.1472 32.4986 65.807
1 46.9588 33.7986 68.1519
1 49.8484 32.4862 65.7731
1 49.7916 33.9197 68.0854
1 38.4367 37.4517 65.7332
1 38.2156 38.8324 68.1385
1 41.1527 37.1054 65.6624
1 41.1668 38.701 68.0684
1 39.777 36.4931 68.108
1 43.053 34.9241 65.5132
1 44.1471 37.3119 65.7406
1 43.9923 38.7852 68.0566
1 42.6332 36.2945 68.0291
1 45.6395 34.7662 65.646
1 47.0125 37.2507 65.6538
1 46.8943 38.8668 68.0018
1 45.4967 36.3463 67.9574
1 48.4926 34.8997 65.7048
1 49.8837 37.3973 65.8131
1 49.7939 38.9229 68.1529
1 48.3333 36.3374 68.0468
1 35.4147 42.3976 65.9181
1 35.3066 43.8249 68.2536
1 36.9367 39.9293 65.897
1 38.303 42.2522 66.0156
1 38.1744 43.9328 68.2461
1 36.7836 41.3965 68.2285
1 39.7205 39.6996 65.7992
1 41.1442 42.0677 65.8185
1 41.1004 43.8554 68.2812
1 39.5985 41.3094 68.2287
1 42.6788 39.5504 65.7399
1 44.0001 42.332 65.8816
1 43.9922 43.8308 68.2373
1 42.5591 41.2922 68.0729
1 45.5171 39.8196 65.8105
1 46.8673 42.3361 65.7282
1 46.9026 43.8616 68.157
1 45.5059 41.327 68.1766
1 48.3874 39.7604 65.741
1 49.7866 42.3144 65.7881
1 49.7705 43.8751 68.1243
1 48.3013 41.4178 68.0822
1 32.6529 47.3622 65.9247
1 32.6624 48.7271 68.4389
1 34.0825 44.9066 66.0596
1 35.268 47.3847 65.9914
1 35.3078 48.9394 68.3143
1 33.7942 46.31 68.3942
1 36.7411 44.7822 65.8604
1 38.2209 47.2784 65.9009
1 38.1574 48.8866 68.2128
1 36.6218 46.2941 68.1877
1 39.5947 44.7272 65.9207
1 41.0769 47.1431 65.9741
1 41.1171 48.8352 68.3
1 39.7342 46.3332 68.3194
1 42.4601 44.5599 65.8534
1 43.8474 47.2257 65.9129
1 43.9241 48.8992 68.2202
1 42.5481 46.305 68.2759
1 45.3643 44.7654 65.8054
1 46.7672 47.3314 65.7996
1 46.8105 48.8654 68.1613
1 45.4621 46.3514 68.2312
1 48.3117 44.7864 65.8531
1 49.687 47.316 65.8277
1 49.6791 48.9526 68.0855
1 48.2782 46.3968 68.1053
1 33.7712 49.9549 66.0018
1 36.7089 49.7859 65.9534
1 39.6933 49.6855 65.9058
1 42.5158 49.74 65.9263
1 45.4018 49.8027 65.8007
1 48.2201 49.9372 65.862
1 44.2182 33.8894 72.8111
1 44.5872 32.5701 70.3846
1 47.0676 33.8011 72.8156
1 47.294 32.3561 70.3805
1 49.8562 33.743 72.7885
1 38.4975 37.4405 70.477
1 38.3698 38.7741 72.9256
1 41.2705 37.0539 70.4237
1 41.2859 38.8112 72.8253
1 39.703 36.5983 72.6499
1 42.9355 34.7625 70.4438
1 44.0309 37.221 70.4406
1 44.0667 38.8658 72.8017
1 42.5956 36.209 72.8311
1 45.6728 34.9205 70.4253
1 46.9748 37.3456 70.3745
1 46.9452 38.9148 72.8233
1 45.5295 36.4416 72.6466
1 48.5097 34.8187 70.4979
1 49.9062 37.2097 70.3635
1 49.785 38.8257 72.6992
1 48.3654 36.3591 72.8193
1 35.4871 42.2501 70.6912
1 35.4604 43.7613 73.0367
1 37.0634 39.7302 70.4597
1 38.2075 42.2418 70.5963
1 38.2723 43.7934 72.9768
1 36.8534 41.2533 72.9071
1 39.7865 39.6477 70.4822
1 41.0846 42.1036 70.4857
1 41.2103 43.834 72.9315
1 39.6592 41.2881 72.9269
1 42.5977 39.6286 70.4334
1 43.9275 42.1717 70.5006
1 44.0563 43.895 72.9498
1 42.5159 41.4003 72.8448
1 45.483 39.6879 70.5142
1 46.8608 42.215 70.5279
1 46.866 43.9469 72.8899
1 45.4173 41.3579 72.8157
1 48.4453 39.8143 70.4412
1 49.8706 42.257 70.4395
1 49.8144 43.9062 72.8576
1 48.2601 41.3623 72.8516
1 32.5606 47.2488 70.6652
1 32.7413 48.7055 73.0337
1 34.1571 44.7011 70.7262
1 35.4003 47.1888 70.5952
1 35.3895 48.8049 72.8924
1 34.0196 46.2551 73.0061
1 36.7381 44.6988 70.7126
1 38.2029 47.1843 70.5184
1 38.2698 48.7634 72.9634
1 36.8653 46.3238 73.0053
1 39.6443 44.646 70.6443
1 41.0905 47.0279 70.6235
1 41.1306 48.7466 72.9868
1 39.7485 46.2581 72.9455
1 42.5413 44.6045 70.5559
1 44.0081 47.2205 70.55
1 44.0546 48.8658 72.9147
1 42.6176 46.3361 72.9711
1 45.4 44.6434 70.5674
1 46.8987 47.1828 70.5506
1 46.9095 48.8397 72.7938
1 45.4449 46.3982 72.8924
1 48.2957 44.6885 70.4977
1 49.7312 47.2932 70.4274
1 49.7472 48.8992 72.8847
1 48.3359 46.4241 72.882
1 33.8193 49.7173 70.7065
1 36.7978 49.6748 70.5984
1 39.6625 49.5427 70.5651
1 42.5661 49.6248 70.6571
1 45.5243 49.6672 70.4477
1 48.3516 49.7666 70.5644
1 44.1889 33.7509 77.4981
1 44.9529 32.5228 75.2655
1 47.008 33.7076 77.3519
1 47.5777 32.2348 74.9374
1 49.912 33.6629 77.5551
1 38.5055 37.141 75.2116
1 38.2518 38.6803 77.5989
1 41.1963 37.0841 75.2039
1 41.2344 38.6581 77.5072
1 39.7537 36.3916 77.5734
1 42.9601 34.5993 75.1974
1 44.0981 37.1569 75.1201
1 44.0375 38.6328 77.5645
1 42.6255 36.1885 77.458
1 45.6642 34.8892 75.0228
1 47.0048 37.2539 75.1063
1 46.856 38.8078 77.5728
1 45.5373 36.1703 77.4754
1 48.5428 34.7255 75.1753
1 49.9309 37.2205 75.139
1 49.7046 38.8266 77.5916
1 48.4372 36.2272 77.4441
1 35.619 42.1054 75.3858
1 35.4633 43.7204 77.7166
1 37.057 39.6872 75.2262
1 38.3484 42.1211 75.3015
1 38.2709 43.6393 77.6593
1 36.907 41.2247 77.6978