5538
Atoms. Timestep: 40000
1 42.7514 36.1791 4.9097
1 46.963 35.4707 7.25317
1 45.5237 36.1101 4.97618
1 48.6121 33.237 7.19634
1 50.201 33.6434 5.06449
1 36.7954 38.0545 7.13777
1 35.5403 38.9052 4.98174
1 39.623 37.8682 7.19962
1 39.7493 41.1321 4.85156
1 38.2034 38.6274 4.84709
1 41.2985 35.591 7.09504
1 42.6043 37.9232 7.24838
1 42.6103 41.129 4.97568
1 41.0517 38.5521 5.02302
1 44.0998 35.5404 7.24505
1 45.5529 37.8579 7.30706
1 45.4962 41.2551 4.99159
1 44.0768 38.6565 5.02009
1 48.5159 35.8769 5.05838
1 49.7724 40.3632 7.38201
1 49.9142 38.5651 5.0301
1 47.0056 38.5765 4.98743
1 33.8314 42.8495 7.13898
1 32.6762 43.7344 4.78029
1 35.3221 40.4617 7.16255
1 36.7158 42.9365 7.17028
1 35.4376 43.7224 4.80454
1 34.1321 41.3134 4.91038
1 38.228 40.4267 7.18712
1 39.6631 42.9183 7.21718
1 38.3157 43.7472 4.91468
1 36.9365 41.203 4.84167
1 41.0782 40.3867 7.25564
1 42.6101 42.899 7.28762
1 42.4907 46.3511 4.91317
1 41.2065 43.7173 4.89822
1 44.0795 40.3754 7.19236
1 45.5214 42.9431 7.31436
1 46.8691 43.7742 4.95217
1 44.0366 43.7853 4.99065
1 46.9274 40.3495 7.28901
1 51.1883 42.9848 7.33873
1 49.845 43.9381 5.0833
1 48.4544 41.1424 4.99136
1 31.1732 47.8414 6.98668
1 32.3647 48.6577 4.63512
1 32.5138 45.2658 7.06117
1 33.8446 47.857 7.08417
1 35.3066 48.7996 4.77211
1 31.2072 46.1008 4.59605
1 35.2735 45.3702 7.13701
1 36.6373 47.9024 7.18623
1 38.1817 48.758 4.77966
1 33.8631 46.1836 4.77572
1 38.185 45.398 7.30355
1 39.5293 47.9311 7.21277
1 40.954 48.8604 4.79336
1 36.7454 46.2816 4.88733
1 41.02 45.3403 7.25315
1 42.4803 48.02 7.16932
1 43.8046 50.4688 7.17694
1 39.6257 46.2344 4.9529
1 43.9282 45.515 7.20972
1 45.4797 48.0646 7.15366
1 48.235 48.0767 7.14662
1 43.9395 48.7956 4.86207
1 48.3943 42.8638 7.22948
1 49.6467 45.5128 7.31997
1 51.0895 48.0709 7.22576
1 46.8466 45.5246 7.14702
1 32.4503 50.318 7.00563
1 35.1893 50.4583 7.10134
1 38.0219 50.4105 7.18861
1 40.9425 50.4913 7.18523
1 46.6954 50.542 7.23819
1 49.6515 50.6051 7.25709
1 43.9664 34.0947 11.7988
1 48.4681 37.8287 7.34374
1 46.8705 33.8962 12.0244
1 50.0011 35.4722 7.39021
1 49.7489 33.7586 12.1126
1 38.0303 37.2509 9.53024
1 37.9973 38.8628 11.9039
1 40.9697 37.1263 9.53368
1 40.9541 38.8392 11.8109
1 39.4514 36.5683 11.7648
1 42.6295 34.9024 9.36973
1 44.0777 37.0898 9.59025
1 43.9333 38.775 11.8035
1 42.4347 36.3015 11.7914
1 45.4806 34.6381 9.62779
1 46.9044 37.0569 9.7122
1 46.893 38.7446 11.9458
1 45.4298 36.302 11.9777
1 48.3968 34.5808 9.69393
1 49.9088 37.0503 9.6643
1 49.7584 38.7515 11.9585
1 48.4099 36.2051 11.9509
1 35.2168 42.056 9.45425
1 35.1752 43.6648 11.7746
1 36.7653 39.5716 9.527
1 38.0172 42.1088 9.51424
1 38.0633 43.8419 11.8121
1 36.6285 41.3399 11.8456
1 39.4953 39.5994 9.51923
1 41.0052 42.087 9.56281
1 40.8789 43.7565 11.8324
1 39.4938 41.2444 11.7707
1 42.5657 39.6129 9.52598
1 43.9398 42.0567 9.55912
1 43.7689 43.8136 11.8041
1 42.4194 41.2979 11.8481
1 45.516 39.6134 9.58398
1 46.8781 42.155 9.57032
1 46.6375 43.8137 11.7756
1 45.2796 41.2667 11.8356
1 48.3219 39.542 9.65013
1 49.7773 42.0927 9.6456
1 49.4458 43.8781 11.9098
1 48.2018 41.2264 11.9001
1 32.282 46.9187 9.23568
1 32.5004 48.4894 11.5188
1 33.822 44.509 9.47046
1 35.034 47.0492 9.48516
1 35.0964 48.8574 11.7076
1 33.646 46.1702 11.6957
1 36.5796 44.5695 9.46204
1 37.9442 47.1367 9.50334
1 37.9477 48.9032 11.8222
1 36.5274 46.267 11.808
1 39.5171 44.5842 9.54229
1 40.982 47.1589 9.5043
1 40.8209 48.8683 11.7723
1 39.4788 46.3218 11.7083
1 42.4492 44.6945 9.56167
1 43.789 47.304 9.39352
1 43.7306 48.991 11.7599
1 42.3816 46.3444 11.8097
1 45.3115 44.6885 9.48461
1 46.7675 47.1938 9.44254
1 46.6186 49.0256 11.7656
1 45.2964 46.4098 11.7132
1 48.1474 44.7002 9.53339
1 49.6552 47.3046 9.50949
1 49.5245 48.9816 11.9009
1 47.9992 46.4232 11.832
1 33.5813 49.646 9.37308
1 36.574 49.6177 9.45029
1 39.413 49.7032 9.49192
1 42.3595 49.8208 9.5498
1 45.2534 49.7438 9.44367
1 48.1577 49.8172 9.44938
1 44.044 33.9466 16.5493
1 50.0075 32.3687 14.4447
1 46.9457 33.7559 16.6635
1 52.6309 32.5162 14.4327
1 49.721 33.7432 16.7199
1 38.3943 37.2913 14.1806
1 38.1406 38.893 16.4571
1 41.0964 37.0596 14.0784
1 40.9644 38.8278 16.3722
1 39.5829 36.4867 16.5335
1 42.6488 34.762 14.1747
1 44.0006 37.131 14.1839
1 44.0138 38.7722 16.5462
1 42.4123 36.2681 16.5651
1 45.4628 34.504 14.2435
1 46.8515 37.0069 14.2488
1 46.7826 38.8939 16.3987
1 45.371 36.2855 16.4389
1 48.2597 34.608 14.3607
1 49.6113 37.1597 14.258
1 49.647 38.9509 16.626
1 48.2175 36.3368 16.5401
1 35.308 42.2128 14.1659
1 34.9961 43.7438 16.4792
1 36.7633 39.8101 14.1581
1 38.0666 42.2472 14.075
1 37.9319 43.8213 16.4263
1 36.537 41.3562 16.4308
1 39.5968 39.6755 14.0722
1 40.9407 42.19 14.0564
1 40.8292 43.8222 16.4151
1 39.3899 41.4094 16.4302
1 42.5089 39.6042 14.1499
1 43.8496 42.1435 14.1565
1 43.7131 43.85 16.445
1 42.3099 41.2711 16.4707
1 45.3468 39.6907 14.1516
1 46.7067 42.2458 14.0689
1 46.6104 43.9666 16.4118
1 45.1816 41.4085 16.3951
1 48.2957 39.7412 14.25
1 49.5805 42.2592 14.2084
1 49.5268 43.9435 16.4402
1 47.9952 41.4878 16.4736
1 32.4211 47.2135 13.9628
1 32.4423 48.6651 16.3692
1 33.8086 44.6475 14.1446
1 35.0202 47.1897 14.0106
1 35.0945 48.7955 16.3968
1 33.6421 46.2773 16.3218
1 36.55 44.6233 14.1125
1 37.9538 47.2463 13.9944
1 38.0102 48.7749 16.398
1 36.5089 46.2282 16.3814
1 39.5056 44.703 14.0742
1 40.8286 47.2879 14.1628
1 40.8026 48.9644 16.4545
1 39.3684 46.2697 16.4012
1 42.345 44.7464 14.1386
1 43.7786 47.285 14.1243
1 43.6859 49.0124 16.3663
1 42.2735 46.4069 16.4603
1 45.205 44.7857 14.1759
1 46.6651 47.3037 14.104
1 46.5704 49.0625 16.3662
1 45.1361 46.4101 16.4177
1 48.1268 44.7413 14.1816
1 49.5345 47.2299 14.1113
1 49.4045 49.0079 16.3803
1 47.995 46.534 16.463
1 33.5424 49.6434 13.9777
1 36.5214 49.6824 14.0939
1 39.4712 49.7029 14.0829
1 42.2555 49.7796 14.11
1 45.1506 49.9075 14.0485
1 48.03 49.9293 14.0983
1 43.944 34.1435 21.1299
1 44.1653 32.5572 18.8983
1 46.7637 33.9853 21.2533
1 46.774 32.3464 19.0032
1 49.5667 33.8682 21.3471
1 38.2903 37.3411 18.8283
1 37.9801 38.9298 21.0949
1 40.8896 37.1226 18.8233
1 40.8087 38.8527 21.1676
1 39.3661 36.5529 21.2135
1 42.6218 34.7633 18.8451
1 43.7282 37.2862 18.9257
1 43.699 38.9392 21.1104
1 42.1971 36.3294 21.2886
1 45.4406 34.8969 18.8237
1 46.733 37.3915 18.7448
1 46.6278 39.0058 21.1257
1 45.312 36.5918 21.1247
1 48.2434 34.8526 18.9488
1 49.667 37.365 18.941
1 49.5074 39.0069 21.2238
1 48.1438 36.4957 21.1853
1 35.2164 42.2112 18.7557
1 35.0578 43.7561 21.0434
1 36.6654 39.7429 18.7696
1 37.9538 42.1375 18.834
1 37.8536 43.8006 21.1248
1 36.4587 41.2564 21.0172
1 39.5482 39.7213 18.7721
1 40.8272 42.2478 18.8494
1 40.826 43.9113 21.1129
1 39.3482 41.4006 21.1403
1 42.3235 39.735 18.7808
1 43.6461 42.281 18.7655
1 43.622 43.9816 21.09
1 42.2385 41.3441 21.1503
1 45.2073 39.8337 18.7839
1 46.6019 42.3345 18.7791
1 46.5016 44.0416 21.1462
1 45.0807 41.4591 21.0805
1 48.0792 39.8758 18.853
1 49.5174 42.3339 18.8172
1 49.4278 44.0458 21.1438
1 47.8953 41.5211 21.2099
1 32.4446 47.2716 18.7357
1 32.3867 48.7446 21.0857
1 33.7341 44.6725 18.7232
1 35.0322 47.1847 18.602
1 35.0267 48.7853 20.9657
1 33.6117 46.2336 21.1073
1 36.4835 44.68 18.7761
1 37.9755 47.1278 18.7224
1 37.9394 48.9284 21.0318
1 36.4176 46.3791 21.0087
1 39.4491 44.6421 18.8156
1 40.7627 47.1835 18.7418
1 40.8292 48.8812 21.0585
1 39.322 46.4148 21.1486
1 42.2736 44.6465 18.7331
1 43.7059 47.2011 18.7253
1 43.7345 48.8471 21.1533
1 42.2739 46.3591 21.1126
1 45.1516 44.7257 18.7276
1 46.6467 47.3151 18.7762
1 46.6463 49.0182 21.1789
1 45.1632 46.4788 21.0758
1 47.9901 44.8115 18.7829
1 49.41 47.3839 18.7612
1 49.4505 49.0384 21.1623
1 48.0886 46.4254 21.1437
1 33.5696 49.7557 18.676
1 36.4438 49.7111 18.7971
1 39.32 49.6909 18.7576
1 42.3369 49.7023 18.8141
1 45.1211 49.7651 18.8568
1 47.9326 49.9183 18.7239
1 43.7331 34.158 25.8723
1 43.9697 32.7547 23.4913
1 46.7056 34.028 25.9704
1 46.5711 32.6177 23.6505
1 49.5041 34.1297 25.9345
1 37.9704 37.3519 23.4456
1 37.8673 39.0475 25.8253
1 40.76 37.2751 23.5748
1 40.7994 38.9908 25.9045
1 39.4027 36.7473 25.8648
1 42.5014 34.8687 23.596
1 43.6099 37.3515 23.4194
1 43.5447 38.9892 25.8358
1 42.1934 36.4679 25.953
1 45.3534 35.0837 23.571
1 46.6192 37.5622 23.5505
1 46.4694 39.0875 25.9755
1 45.0253 36.6446 25.8142
1 48.0798 34.9682 23.5684
1 49.4732 37.4243 23.5156
1 49.4402 39.1052 26.0011
1 47.9035 36.6722 25.9636
1 35.0973 42.2888 23.3685
1 34.9627 43.8527 25.8088
1 36.5868 39.7797 23.4572
1 37.8581 42.2063 23.438
1 37.8125 43.8777 25.7651
1 36.316 41.4299 25.8654
1 39.3665 39.7101 23.5284
1 40.7177 42.2782 23.5287
1 40.6563 43.9369 25.9171
1 39.2683 41.4839 25.807
1 42.1567 39.896 23.5442
1 43.5577 42.3563 23.4604
1 43.698 44.0389 25.8854
1 42.1281 41.5668 25.9296
1 45.0529 39.8571 23.5684
1 46.4764 42.3892 23.5441
1 46.508 44.0035 25.9084
1 44.9773 41.5392 25.9703
1 48.0129 39.9235 23.5339
1 49.4409 42.4258 23.4982
1 49.4204 44.0724 25.8792
1 47.9144 41.5756 25.8635
1 32.2831 47.2495 23.4079
1 32.3301 48.6953 25.6636
1 33.68 44.7766 23.5065
1 35.0368 47.3017 23.4461
1 34.9824 48.8692 25.6756
1 33.5562 46.3367 25.806
1 36.3827 44.7287 23.3888
1 37.9417 47.2275 23.4681
1 37.8602 48.7699 25.7248
1 36.3822 46.3089 25.8077
1 39.3103 44.7881 23.4866
1 40.8449 47.2798 23.4697
1 40.7375 48.8506 25.8702
1 39.3339 46.4029 25.8505
1 42.2393 44.8493 23.4879
1 43.6983 47.2943 23.5604
1 43.6275 48.9597 25.8807
1 42.2609 46.4882 25.8764
1 45.1242 44.8109 23.5065
1 46.534 47.3925 23.5304
1 46.5403 48.9811 25.9858
1 45.1528 46.4311 25.9308
1 47.9848 44.815 23.4739
1 49.3911 47.4389 23.5037
1 49.3095 49.0049 25.9256
1 47.9335 46.5075 25.897
1 33.5492 49.7062 23.3464
1 36.458 49.7233 23.3999
1 39.3941 49.6746 23.3807
1 42.2526 49.7509 23.4807
1 45.1695 49.9235 23.543
1 47.995 49.8666 23.5306
1 44.083 32.6855 28.1194
1 46.7188 32.5976 28.2174
1 38.0887 37.4609 28.3109
1 40.7138 37.127 28.3436
1 42.4662 34.8788 28.2077
1 43.6387 37.3208 28.2781
1 45.2306 34.9718 28.1987
1 46.4955 37.4905 28.317
1 48.0831 35.0484 28.2948
1 49.3918 37.501 28.4027
1 35.1115 42.2949 28.276
1 36.6011 39.7902 28.2861
1 37.8613 42.1711 28.1812
1 39.3459 39.7465 28.2446
1 40.6515 42.2666 28.2444
1 42.1686 39.805 28.2781
1 43.5279 42.3609 28.2928
1 45.0186 39.8634 28.302
1 46.3838 42.3407 28.2822
1 47.8812 40.0247 28.278
1 49.3067 42.4239 28.3099
1 32.3541 47.2381 28.1246
1 33.6347 44.7853 28.1224
1 34.9998 47.1599 28.172
1 36.3551 44.6821 28.2253
1 37.8743 47.2811 28.1362
1 39.2462 44.755 28.32
1 40.7082 47.1484 28.1973
1 42.1491 44.7505 28.2408
1 43.4992 47.2586 28.2076
1 44.9722 44.8018 28.3635
1 46.4252 47.2569 28.4019
1 47.862 44.8363 28.232
1 49.31 47.3331 28.3302
1 33.4944 49.7673 28.0007
1 36.3848 49.7747 28.0081
1 39.2061 49.7255 28.1996
1 42.0756 49.6619 28.1418
1 45.0518 49.7048 28.2774
1 47.8664 49.7662 28.3004
1 43.6952 34.01 30.5529
1 46.5237 33.9176 30.5547
1 49.3347 34.0266 30.6707
1 37.7655 38.9565 30.6932
1 40.6655 38.8032 30.5708
1 39.1887 36.6837 30.7606
1 43.4708 38.9602 30.6223
1 42.1982 36.3372 30.6534
1 46.446 39.0579 30.7255
1 45.0338 36.4686 30.7392
1 49.4287 39.0553 30.674
1 47.9079 36.5868 30.6846
1 34.9647 43.9086 30.5979
1 37.8074 43.8358 30.6217
1 36.3214 41.4234 30.6131
1 40.7311 43.7962 30.6872
1 39.2972 41.2922 30.6728
1 43.5846 43.9836 30.6367
1 42.13 41.3732 30.6895
1 46.4925 44.0579 30.7357
1 45.0702 41.5589 30.7286
1 49.3726 44.0216 30.6653
1 47.995 41.5748 30.7347
1 32.4239 48.7046 30.4711
1 35.0153 48.8403 30.4243
1 33.5775 46.2635 30.5523
1 37.8725 48.8242 30.5572
1 36.4598 46.3148 30.4469
1 40.6747 48.785 30.5805
1 39.3418 46.283 30.5793
1 43.4429 48.9923 30.624
1 42.1593 46.3699 30.6885
1 46.3117 49.0267 30.7008
1 44.9602 46.4862 30.7355
1 49.3331 49.0759 30.6823
1 47.86 46.6248 30.7839
1 43.7453 34.141 35.3439
1 46.7571 32.5641 33.0043
1 46.4774 33.9916 35.2993
1 49.3215 32.6609 33.2106
1 49.3948 33.9987 35.502
1 38.0294 37.473 33.1179
1 37.8333 38.9863 35.4235
1 40.7413 37.1972 33.0013
1 40.7681 38.9002 35.4643
1 39.2907 36.6224 35.5279
1 42.3903 34.8827 33.1119
1 43.7185 37.2147 33.0359
1 43.7003 38.7756 35.3653
1 42.0822 36.4201 35.4003
1 45.0732 34.8262 32.9597
1 46.497 37.3325 33.0995
1 46.5172 38.9642 35.4986
1 45.0291 36.3953 35.6111
1 47.8781 34.9249 32.9588
1 49.3369 37.4542 33.048
1 49.33 39.0813 35.4576
1 47.9412 36.4916 35.3916
1 35.0848 42.3394 32.9892
1 35.0009 43.9889 35.3597
1 36.5117 39.8415 33.1389
1 37.8313 42.1585 33.0099
1 37.8546 43.8556 35.2564
1 36.4466 41.49 35.4145
1 39.3694 39.7351 33.0386
1 40.7551 42.2319 33.1654
1 40.7638 44.0077 35.4271
1 39.3041 41.3715 35.4051
1 42.2396 39.7187 33.0621
1 43.6872 42.2999 33.0757
1 43.7471 43.8281 35.508
1 42.3094 41.3238 35.3891
1 44.9519 39.8021 33.0581
1 46.5272 42.3509 33.1332
1 46.608 43.8493 35.5708
1 45.1768 41.3534 35.4147
1 47.8702 39.8884 32.9834
1 49.3407 42.4793 33.0772
1 49.4073 44.087 35.5554
1 48.0634 41.4795 35.4752
1 32.4142 47.383 33.0238
1 32.4007 48.7593 35.4604
1 33.6673 44.8711 32.998
1 35.0258 47.286 32.8358
1 35.0246 48.9118 35.2104
1 33.6349 46.4319 35.2389
1 36.4118 44.6895 32.8978
1 37.89 47.1624 32.892
1 37.8302 48.7633 35.3327
1 36.4956 46.3837 35.3043
1 39.2382 44.6682 33.0487
1 40.7664 47.2917 33.0897
1 40.7488 48.7996 35.4227
1 39.3417 46.3541 35.4062
1 42.2281 44.7204 33.0572
1 43.5991 47.3338 33.0197
1 43.6132 48.9146 35.4123
1 42.3841 46.3944 35.3264
1 45.0281 44.8427 33.1085
1 46.3739 47.3591 33.039
1 46.4983 48.932 35.4835
1 45.1465 46.3933 35.5031
1 47.811 44.9563 33.0431
1 49.3691 47.3777 33.1321
1 49.3671 49.0668 35.3188
1 47.9249 46.4798 35.484
1 33.6336 49.7608 32.891
1 36.5175 49.6953 32.8545
1 39.2976 49.6814 33.0447
1 42.1804 49.7277 33.0439
1 45.0745 49.8032 33.0784
1 47.8656 49.836 32.9933
1 43.6203 34.0431 40.3232
1 47.1112 32.6882 37.3885
1 46.4971 33.9752 40.1696
1 49.6835 32.5937 37.9113
1 49.3649 34.0061 40.2902
1 38.0975 37.4511 37.9234
1 37.8711 39.0297 40.2116
1 40.7818 37.1882 37.7687
1 40.8202 38.895 40.1345
1 39.4153 36.702 40.2948
1 42.4242 34.9332 37.8824
1 43.698 37.2433 37.803
1 43.7499 39.0444 40.1852
1 42.3094 36.4298 40.2874
1 45.0928 34.5849 37.7432
1 46.5528 37.2559 37.8245
1 46.5385 38.9271 40.3087
1 45.1539 36.3675 40.082
1 48.1136 34.9708 37.9945
1 49.323 37.4373 37.8195
1 49.359 39.0487 40.2233
1 47.9457 36.5066 40.2509
1 35.1762 42.3237 37.7565
1 35.0212 43.998 40.095
1 36.7417 39.9339 37.8359
1 38.0243 42.2845 37.6938
1 37.8768 43.8771 40.1192
1 36.4348 41.4886 40.0836
1 39.4983 39.7271 37.8122
1 40.8477 42.2727 37.7287
1 40.7488 43.9622 40.227
1 39.2874 41.3509 40.1399
1 42.3071 39.688 37.7707
1 43.7076 42.2245 37.7797
1 43.6346 43.9271 40.1962
1 42.1201 41.4005 40.1964
1 45.1364 39.7736 37.813
1 46.5542 42.3145 37.8067
1 46.5689 43.9322 40.3252
1 45.0851 41.4531 40.0815
1 47.8894 39.839 37.887
1 49.4069 42.3479 37.8466
1 49.4502 43.9215 40.2559
1 48.037 41.4925 40.2744
1 32.4663 47.2329 37.6754
1 32.3993 48.757 40.071
1 33.8136 44.8638 37.7494
1 35.1105 47.346 37.683
1 35.0824 48.9506 40.0318
1 33.6998 46.4769 40.1493
1 36.5605 44.7048 37.7579
1 38.0158 47.2623 37.7385
1 37.9711 49.0009 40.1071
1 36.5099 46.4342 40.0715
1 39.3665 44.7707 37.7246
1 40.9187 47.1401 37.7752
1 40.8822 48.9342 40.1606
1 39.4448 46.3912 40.1137
1 42.2445 44.7227 37.7032
1 43.6712 47.223 37.7897
1 43.6252 48.8903 40.2348
1 42.2514 46.3603 40.1246
1 45.0992 44.7669 37.8479
1 46.5043 47.3199 37.9139
1 46.4924 49.0417 40.2181
1 45.0548 46.414 40.1846
1 47.9559 44.9048 37.9138
1 49.3775 47.2577 37.8757
1 49.4184 49.0194 40.132
1 48.0058 46.5352 40.2452
1 33.4632 49.8015 37.8118
1 36.4224 49.7322 37.67
1 39.4316 49.7823 37.7123
1 42.1973 49.7277 37.762
1 45.0077 49.8201 37.7728
1 47.9944 49.845 37.8378
1 44.0309 32.6441 42.6181
1 46.6055 32.6367 42.5999
1 38.2208 37.5419 42.6515
1 40.9105 37.1575 42.6286
1 42.4283 34.8617 42.6499
1 43.7093 37.37 42.5321
1 45.2807 35.0399 42.4813
1 46.5449 37.5133 42.7005
1 48.0665 35.02 42.7062
1 49.4925 37.4202 42.5716
1 35.2343 42.4742 42.4471
1 36.7131 39.9466 42.6902
1 37.9894 42.3326 42.5301
1 39.4868 39.8537 42.5856
1 40.8187 42.3573 42.5913
1 42.3074 39.814 42.5758
1 43.5992 42.251 42.5281
1 45.1704 39.9395 42.5666
1 46.6783 42.3845 42.6019
1 48.0223 39.8563 42.663
1 49.5156 42.3479 42.6394
1 32.5006 47.2977 42.6294
1 33.8412 44.8077 42.5618
1 35.1469 47.2357 42.4038
1 36.6257 44.806 42.4558
1 38.0555 47.278 42.3977
1 39.4685 44.791 42.4559
1 40.836 47.2898 42.6004
1 42.363 44.7921 42.5236
1 43.7915 47.306 42.6071
1 45.1691 44.7331 42.5767
1 46.6172 47.2961 42.5584
1 48.0779 44.8596 42.5681
1 49.3791 47.4271 42.5872
1 33.5716 49.7705 42.4229
1 36.5433 49.7074 42.4512
1 39.4122 49.7448 42.5883
1 42.1787 49.7095 42.5714
1 45.0963 49.7612 42.5726
1 47.9572 49.7964 42.5864
1 44.0636 34.1292 44.9582
1 46.758 33.9194 45.0246
1 49.4589 34.0427 45.1783
1 38.0572 39.0883 44.9961
1 40.9733 38.9734 44.9607
1 39.5782 36.7414 45.0457
1 43.8494 39.0381 45.0118
1 42.3568 36.5414 44.9516
1 46.7047 38.9882 45.1019
1 45.3116 36.5232 44.9312
1 49.5107 39.1113 45.0653
1 48.0438 36.4544 45.0224
1 35.1876 43.9642 44.9183
1 37.9858 43.9737 44.9106
1 36.5373 41.6014 44.9976
1 40.831 43.9958 45.0516
1 39.4911 41.4647 44.9285
1 43.7252 43.9807 44.9421
1 42.3216 41.4854 45.0327
1 46.6018 43.9855 45.0194
1 45.2536 41.4895 44.9954
1 49.4346 44.014 45.1018
1 48.063 41.4807 45.1208
1 32.4744 48.8826 44.8439
1 35.1092 48.9326 44.8005
1 33.7906 46.405 44.8392
1 37.8862 49.0121 44.9197
1 36.5452 46.4835 44.8341
1 40.8009 48.9237 45.0038
1 39.3738 46.4958 44.904
1 43.6548 48.9005 44.913
1 42.2692 46.3977 44.8896
1 46.5543 48.9137 44.9708
1 45.1405 46.4242 44.9205
1 49.3582 49.0596 44.9856
1 48.0283 46.5188 45.0882
1 44.1777 34.238 49.6678
1 44.4788 32.805 47.2435
1 46.9483 34.097 49.8174
1 47.2343 32.7367 47.5357
1 49.7537 34.1168 49.9179
1 38.3655 37.6355 47.2795
1 38.1626 39.158 49.7922
1 41.2131 37.3518 47.3479
1 41.0585 39.1694 49.7351
1 39.6241 36.9128 49.6449
1 42.8317 34.9854 47.3781
1 44.0699 37.4091 47.3755
1 43.9396 39.0773 49.7418
1 42.577 36.4835 49.735
1 45.6053 35.0662 47.4569
1 46.8882 37.4594 47.4952
1 46.8821 39.1705 49.8648
1 45.3753 36.6857 49.8006
1 48.4273 35.1385 47.6028
1 49.7139 37.5593 47.4201
1 49.6985 39.176 49.8953
1 48.4241 36.7321 49.962
1 35.4555 42.5537 47.3457
1 35.3184 43.9921 49.7693
1 36.9211 40.0425 47.4722
1 38.2288 42.378 47.3627
1 38.0739 44.1045 49.6636
1 36.7346 41.5906 49.6728
1 39.669 39.8623 47.355
1 41.0153 42.3924 47.434
1 40.9861 44.0106 49.7119
1 39.5692 41.6214 49.8107
1 42.5267 39.9017 47.4255
1 43.8409 42.3937 47.3319
1 43.8361 44.0633 49.6863
1 42.5109 41.6271 49.8669
1 45.3982 39.9816 47.3502
1 46.6639 42.4632 47.4782
1 46.7621 44.1279 49.8319
1 45.332 41.5967 49.7441
1 48.2097 40.0067 47.4895
1 49.5784 42.5026 47.4821
1 49.6006 44.1338 49.8379
1 48.1856 41.5941 49.8302
1 32.6883 47.4921 47.084
1 32.7492 48.8208 49.6614
1 34.0809 44.9799 47.352
1 35.2622 47.4162 47.2021
1 35.3367 49.1297 49.6091
1 33.8162 46.4914 49.577
1 36.7369 44.9469 47.2714
1 38.1281 47.4213 47.2797
1 38.1448 49.1007 49.6713
1 36.7268 46.5657 49.6803
1 39.5304 44.928 47.3076
1 40.9754 47.3982 47.3133
1 40.9506 49.1059 49.674
1 39.5954 46.6226 49.587
1 42.4212 44.8836 47.3609
1 43.7933 47.3223 47.3717
1 43.8575 49.0519 49.6471
1 42.3493 46.594 49.7325
1 45.2149 44.8935 47.3485
1 46.6349 47.3198 47.4055
1 46.6887 49.0308 49.7899
1 45.2661 46.5445 49.8059
1 48.1223 44.9727 47.3768
1 49.5616 47.3715 47.2398
1 49.5561 49.1239 49.712
1 48.1691 46.6494 49.7749
1 33.7946 49.8782 47.2436
1 36.6798 49.8747 47.2527
1 39.4501 49.865 47.304
1 42.3177 49.8947 47.3226
1 45.1766 49.8046 47.2257
1 48.0428 49.8694 47.3966
1 44.1207 34.2172 54.6583
1 47.0972 32.8893 52.3325
1 46.9414 34.1736 54.7337
1 49.8406 32.8569 52.3364
1 49.7824 34.2017 54.6897
1 38.3679 37.6384 52.1379
1 38.3008 39.2468 54.5478
1 41.196 37.3618 52.0576
1 41.19 39.1012 54.4419
1 39.7384 36.8645 54.4291
1 42.8475 35.0511 52.2624
1 43.9734 37.4759 52.1699
1 43.8981 39.1932 54.5699
1 42.5198 36.5676 54.5116
1 45.4229 35.0011 52.266
1 46.8715 37.4781 52.1644
1 46.8412 39.1422 54.6631
1 45.3325 36.6099 54.4982
1 48.3633 35.1331 52.2612
1 49.7866 37.5067 52.401
1 49.659 39.0848 54.7441
1 48.2331 36.6198 54.6877
1 35.4795 42.5045 52.1117
1 35.4327 44.0922 54.4484
1 37.0088 40.0264 52.1057
1 38.2169 42.4344 52.1097
1 38.2183 44.0848 54.4616
1 36.7506 41.6667 54.5129
1 39.7396 39.9093 52.0997
1 41.1228 42.5341 52.1535
1 41.0917 44.1622 54.5328
1 39.7631 41.6669 54.5257
1 42.605 39.8986 52.0749
1 44.0886 42.4476 52.1831
1 44.0319 44.1405 54.6219
1 42.5694 41.7268 54.3778
1 45.5546 39.9671 52.2551
1 46.9457 42.5133 52.262
1 46.8273 44.1963 54.5034
1 45.4923 41.7403 54.5916
1 48.316 40.0241 52.3344
1 49.747 42.4288 52.206
1 49.7009 44.1286 54.6401
1 48.3412 41.6077 54.568
1 32.6637 47.4648 52.0037
1 32.6637 48.8705 54.4659
1 34.0856 44.9783 52.0546
1 35.2983 47.5042 51.8965
1 35.381 49.0679 54.4909
1 33.9734 46.5612 54.3985
1 36.7608 44.9443 52.0508
1 38.2675 47.4294 52.1016
1 38.2765 49.1784 54.474
1 36.8041 46.6197 54.3913
1 39.6313 44.9978 51.9453
1 41.0429 47.4299 52.111
1 41.1952 49.062 54.4598
1 39.5848 46.5645 54.4542
1 42.5205 44.882 52.0977
1 43.939 47.4476 52.1353
1 43.9627 49.1315 54.4595
1 42.4701 46.6102 54.4572
1 45.3473 44.95 52.1075
1 46.6945 47.3922 52.1188
1 46.9085 49.0899 54.5018
1 45.3966 46.6289 54.5455
1 48.2303 45.0464 52.1603
1 49.6415 47.4577 52.1722
1 49.7328 49.118 54.4416
1 48.252 46.5342 54.5098
1 33.8961 50.031 52.0525
1 36.7427 49.8678 52.1272
1 39.6417 49.8881 52.0418
1 42.4836 49.9985 52.0911
1 45.2937 49.891 52.1262
1 48.1532 49.8904 52.1327
1 44.2557 34.3184 59.2652
1 44.3895 32.8458 57.0215
1 47.1133 34.2352 59.4013
1 46.9759 32.6471 56.996
1 49.9224 34.1161 59.5522
1 38.5109 37.721 56.7839
1 38.2798 39.0855 59.1961
1 41.2215 37.4041 56.848
1 41.2216 39.1198 59.3224
1 39.7787 36.8768 59.2259
1 42.7497 35.0613 56.8907
1 44.032 37.5281 56.9282
1 44.0042 39.1961 59.2327
1 42.6429 36.6031 59.2471
1 45.5549 35.0598 56.9659
1 46.9895 37.4812 57.0244
1 46.9409 39.2011 59.3191
1 45.6335 36.6728 59.3977
1 48.4144 34.947 57.0892
1 49.7981 37.6034 57.1003
1 49.8436 39.2113 59.5345
1 48.5083 36.6293 59.4742
1 35.5516 42.453 56.9095
1 35.5192 44.0057 59.3265
1 36.9036 40.0127 56.9806
1 38.2835 42.3828 56.8654
1 38.3235 43.9561 59.2399
1 36.897 41.4642 59.2152
1 39.7456 39.9926 56.8296
1 41.2033 42.5167 56.9047
1 41.2022 44.1451 59.2277
1 39.8098 41.6748 59.3035
1 42.5137 39.9722 56.8918
1 43.9964 42.4818 56.9719
1 44.1366 44.1262 59.2476
1 42.5886 41.574 59.2355
1 45.461 39.989 56.9281
1 46.8745 42.4711 56.9646
1 47.0679 44.2151 59.3565
1 45.5467 41.6947 59.3312
1 48.4215 40.0636 57.0745
1 49.7382 42.4802 57.016
1 49.8838 44.1415 59.3794
1 48.4759 41.6818 59.4008
1 32.7512 47.3498 56.875
1 32.702 48.828 59.1526
1 34.0937 44.8393 56.7743
1 35.407 47.3053 56.8246
1 35.359 48.9562 59.1825
1 34.0388 46.2845 59.1621
1 36.8064 44.9539 56.8498
1 38.1975 47.4308 56.8357
1 38.2973 49.0355 59.1739
1 36.8821 46.4628 59.2323
1 39.691 44.9052 56.9715
1 41.0934 47.369 56.7899
1 41.2147 49.0957 59.149
1 39.705 46.5811 59.218
1 42.6807 44.9612 56.8404
1 43.9554 47.4822 56.9203
1 44.0721 49.0593 59.2784
1 42.6815 46.5626 59.1633
1 45.5554 45.0278 56.8961
1 46.8254 47.5154 56.8197
1 46.9493 49.0884 59.2707
1 45.5674 46.6658 59.2307
1 48.3628 44.9962 56.9168
1 49.6929 47.4794 56.846
1 49.7985 49.1062 59.2142
1 48.3937 46.6233 59.1933
1 33.8246 49.7581 56.7893
1 36.7973 49.8339 56.9341
1 39.7314 49.9186 56.8275
1 42.7258 50.0331 56.8558
1 45.4862 49.9268 56.8086
1 48.3422 49.9299 56.9192
1 44.2685 34.3194 64.0142
1 47.1068 32.7142 61.5395
1 47.2021 34.1016 64.0166
1 49.8395 32.7446 61.8742
1 50.0622 34.0937 64.0862
1 38.631 37.5516 61.5693
1 38.4677 39.0682 63.8971
1 41.2943 37.3954 61.6542
1 41.3742 39.0894 63.9242
1 40.0028 36.7656 64.0397
1 42.9794 35.0821 61.6873
1 44.1852 37.5434 61.6686
1 44.2517 39.09 63.961
1 42.6958 36.5591 64.0224
1 45.6667 34.9205 61.6856
1 47.01 37.5458 61.7574
1 47.0754 39.2429 64.1484
1 45.7083 36.5898 64.0919
1 48.4923 35.096 61.7661
1 49.9046 37.5562 61.9395
1 49.8658 39.1781 64.1794
1 48.5467 36.5915 64.1675
1 35.6511 42.5749 61.5262
1 35.6466 44.0274 63.9659
1 37.2377 40.0898 61.6075
1 38.3987 42.4666 61.5986
1 38.453 44.0549 63.971
1 37.0136 41.6001 63.9684
1 39.8895 39.9061 61.6643
1 41.275 42.4563 61.6378
1 41.3726 44.1317 64.0949
1 39.8556 41.6318 63.9732
1 42.7138 39.8813 61.657
1 44.0783 42.5437 61.631
1 44.2052 44.0869 63.9566
1 42.7996 41.5549 63.9884
1 45.539 40.0903 61.7805
1 46.9741 42.471 61.6727
1 47.1168 44.1931 64.093
1 45.6307 41.7349 64.1068
1 48.3779 39.9951 61.7218
1 49.907 42.5036 61.763
1 49.9153 44.1073 64.0949
1 48.4614 41.6384 64.0995
1 32.7951 47.4167 61.4185
1 32.7651 48.9263 63.988
1 34.2966 45.0171 61.5355
1 35.4934 47.4685 61.5118
1 35.4843 49.1522 63.859
1 34.1545 46.5543 63.9147
1 37.0026 44.9239 61.5634
1 38.3194 47.402 61.5485
1 38.3587 49.1016 63.8977
1 36.9763 46.5202 63.9568
1 39.8698 44.9773 61.5983
1 41.2453 47.4611 61.5255
1 41.2458 49.1392 63.9055
1 39.9146 46.5716 63.9402
1 42.7343 44.9267 61.5983
1 44.0946 47.4906 61.6252
1 44.1822 49.1012 63.9749
1 42.737 46.6513 63.9535
1 45.5919 45.0168 61.6613
1 46.9404 47.4522 61.6086
1 46.9734 49.1352 63.9044
1 45.5808 46.6096 63.9575
1 48.4705 45.0417 61.7623
1 49.7592 47.5604 61.599
1 49.8415 49.2181 63.9805
1 48.481 46.6808 64.0734
1 33.9764 49.88 61.579
1 37.0226 49.8958 61.5742
1 39.8403 49.9488 61.5673
1 42.6132 49.9822 61.5834
1 45.5055 49.9892 61.6074
1 48.3879 49.9899 61.6539
1 44.317 34.1665 68.7881
1 47.3886 32.6445 66.3815
1 47.1745 33.9346 68.7852
1 50.0486 32.6858 66.3844
1 50.0368 34.026 68.8145
1 38.6182 37.5421 66.2862
1 38.4474 39.0556 68.635
1 41.4241 37.3847 66.3654
1 41.4355 39.0296 68.6782
1 40.0309 36.7148 68.6301
1 42.9782 35.0263 66.4541
1 44.2372 37.3577 66.4862
1 44.2761 39.0994 68.7598
1 42.8844 36.4962 68.7985
1 45.7491 34.8549 66.4379
1 47.1509 37.4747 66.4797
1 47.1275 39.0664 68.8917
1 45.7343 36.5287 68.7335
1 48.6564 34.9804 66.4267
1 49.9693 37.5259 66.5379
1 49.8845 39.0944 68.9522
1 48.5689 36.4198 68.8206
1 35.8696 42.4584 66.2715
1 35.5604 44.0231 68.6323
1 37.3255 40.0394 66.2097
1 38.6105 42.4502 66.2909
1 38.5138 44.0709 68.6608
1 37.0789 41.6107 68.6746
1 39.9983 39.9331 66.3171
1 41.4623 42.4392 66.2964
1 41.5168 43.9822 68.6268
1 39.974 41.4409 68.6465
1 42.8438 39.9202 66.3041
1 44.2637 42.5189 66.4428
1 44.3075 44.1788 68.7645
1 42.9055 41.5216 68.7933
1 45.7509 39.9659 66.4436
1 47.1262 42.4765 66.4577
1 47.2096 44.1123 68.766
1 45.7441 41.6145 68.865
1 48.6146 39.9224 66.6612
1 49.9867 42.4628 66.5036
1 50.1502 44.0771 68.8682
1 48.6168 41.6126 68.8824
1 33.0239 47.2974 66.309
1 32.9669 48.7752 68.6228
1 34.3939 44.9233 66.2044
1 35.6637 47.4073 66.2463
1 35.6892 48.9189 68.6111
1 34.3179 46.5045 68.617
1 37.1486 44.891 66.3567
1 38.5207 47.4608 66.2224
1 38.5342 49.0333 68.6509
1 37.1744 46.5472 68.6245
1 40.0298 45.0036 66.3647
1 41.392 47.476 66.3196
1 41.3884 49.0761 68.6577
1 40.0261 46.5015 68.706
1 42.8432 44.9744 66.3963
1 44.2348 47.4772 66.4183
1 44.2792 49.0777 68.6692
1 42.8348 46.5618 68.7522
1 45.6865 44.9815 66.3832
1 47.0695 47.4423 66.3968
1 47.241 49.166 68.7591
1 45.7311 46.5933 68.7947
1 48.5607 45.0544 66.4742
1 49.9976 47.5264 66.3845
1 50.1224 49.1052 68.7787
1 48.6225 46.608 68.7847
1 34.2276 49.8625 66.3038
1 37.0808 49.8988 66.3054
1 40.0054 50.0462 66.3022
1 42.8064 50.0425 66.3338
1 45.7257 49.8794 66.391
1 48.5478 49.9601 66.3039
1 44.4131 34.1417 73.3788
1 44.8575 32.6988 71.0167
1 47.249 33.983 73.5275
1 47.5214 32.5864 71.1454
1 49.9882 33.9521 73.4994
1 38.597 37.5509 70.8984
1 38.4021 39.0265 73.2068
1 41.3509 37.3555 71.0811
1 41.371 38.9684 73.4458
1 39.8886 36.8222 73.3453
1 43.0671 34.7878 71.1443
1 44.2791 37.2984 71.037
1 44.2622 39.0264 73.4376
1 42.6849 36.3837 73.4261
1 45.9671 34.9594 71.0467
1 47.2921 37.4417 71.1927
1 47.2309 39.0106 73.6067
1 45.7237 36.5386 73.4714
1 48.7233 34.9938 71.1644
1 50.0758 37.4771 71.2841
1 49.9967 39.0333 73.6208
1 48.6679 36.4968 73.5886
1 35.7745 42.4474 70.951
1 35.7429 43.8815 73.2843
1 37.1643 39.9599 70.9813
1 38.516 42.3818 70.9645
1 38.5689 43.8873 73.3764
1 37.137 41.4129 73.287
1 39.9927 39.8914 71.0555
1 41.401 42.3527 71.149
1 41.4676 44.0479 73.4522
1 39.9838 41.3974 73.3046
1 42.7951 39.7924 71.1095
1 44.2874 42.3736 71.1554
1 44.3517 43.9863 73.523
1 42.8771 41.5121 73.4807
1 45.7252 39.8477 71.1901
1 47.108 42.5226 71.1754
1 47.1559 44.0795 73.5385
1 45.7658 41.523 73.5205
1 48.4622 40.0411 71.2943
1 49.9414 42.4631 71.1837
1 49.9603 44.0851 73.5483
1 48.6249 41.6141 73.6637
1 33.0186 47.3233 71.0337
1 33.0171 48.6891 73.3487
1 34.4184 44.8449 70.9349
1 35.7743 47.3002 71.0578
1 35.7343 48.9548 73.3534
1 34.4451 46.3516 73.3159
1 37.1554 44.8073 71.0688
1 38.5055 47.3002 70.9784
1 38.6222 48.9204 73.3652
1 37.2071 46.4586 73.3651
1 40.0259 44.8098 70.9336
1 41.4333 47.4321 70.9954
1 41.4719 48.9683 73.4793
1 40.0579 46.4742 73.3392
1 42.8688 44.9378 71.1371
1 44.2461 47.3961 71.1094
1 44.3894 49.0431 73.3857
1 42.9111 46.5676 73.4325
1 45.7995 44.9432 71.0668
1 47.1955 47.5254 71.1262
1 47.1793 49.18 73.4162
1 45.7908 46.5157 73.4387
1 48.5791 44.8655 71.087
1 50.0603 47.4803 71.1779
1 50.0552 49.1648 73.4501
1 48.634 46.5758 73.408
1 34.2271 49.7809 71.0374
1 37.1988 49.7197 70.9956
1 40.0031 49.8519 71.0339
1 42.8353 49.8996 70.9831
1 45.7066 49.9165 71.0534
1 48.6771 49.9187 71.1066
1 44.4008 33.9677 77.9902
1 44.5933 32.5957 75.6736
1 47.3734 33.6742 78.0201
1 47.1867 32.4145 75.6787
1 50.2619 33.7859 78.2141
1 38.6173 37.445 75.6604
1 38.4238 38.9371 78.0584
1 41.3879 37.2041 75.6826
1 41.4267 38.8277 78.2074
1 40.0791 36.6776 78.016
1 43.0166 34.7489 75.7969
1 44.2893 37.1998 75.6617
1 44.3858 38.7267 78.1841
1 42.8718 36.3351 77.9707
1 45.904 34.9052 75.8462
1 47.2087 37.3624 75.876
1 47.179 38.8474 78.3297
1 45.8237 36.2945 78.2297
1 48.7356 34.8314 75.8948
1 50.118 37.3024 75.9882
1 50.0747 38.8649 78.2407
1 48.6373 36.3345 78.2412
1 35.7828 42.3452 75.7291
1 35.5347 43.7648 77.9628
1 37.1397 39.7779 75.7018
1 38.4836 42.1441 75.7564
1 38.5292 43.7475 78.0432