5538
Atoms. Timestep: 50000
1 42.9629 36.6319 5.1707
1 47.2797 35.5033 7.50368
1 45.7013 36.5224 5.07289
1 49.2971 33.6115 7.47856
1 50.5079 34.2313 4.93162
1 37.1494 38.4065 7.42392
1 36.0003 39.259 5.13263
1 40.0994 38.1098 7.40307
1 40.1175 41.529 5.05494
1 38.6002 39.026 5.00086
1 41.677 35.8991 7.60591
1 42.9227 38.144 7.43367
1 42.9503 41.4988 5.01323
1 41.3723 38.9415 4.99886
1 44.4606 35.6881 7.50884
1 45.8633 38.0528 7.44053
1 45.8096 41.6558 5.12672
1 44.3671 39.0071 5.11253
1 48.6789 36.4304 5.03116
1 49.9793 40.6631 7.45513
1 50.0058 39.0427 5.02358
1 47.1995 38.9954 5.01822
1 34.278 43.14 7.42756
1 32.9976 44.0791 5.20392
1 35.7566 40.754 7.43471
1 37.0919 43.1845 7.50354
1 35.7297 44.0778 5.01304
1 34.5845 41.6734 5.11066
1 38.6158 40.5798 7.45263
1 39.9972 43.2512 7.52649
1 38.6047 43.997 5.1302
1 37.2908 41.6159 5.05225
1 41.436 40.4988 7.37162
1 42.8244 43.1034 7.37767
1 42.7921 46.5975 4.9364
1 41.4219 44.0032 5.1033
1 44.2872 40.6584 7.45155
1 45.6601 43.2209 7.39243
1 47.114 44.2434 5.10454
1 44.2374 44.1628 5.03709
1 47.082 40.6925 7.35254
1 51.3577 43.2548 7.40483
1 49.9071 44.192 5.03462
1 48.6887 41.5952 5.13376
1 31.4989 48.0797 7.47576
1 32.7283 48.9711 4.99423
1 32.8738 45.6454 7.55949
1 34.1114 48.077 7.44656
1 35.5014 49.0127 5.03446
1 31.6787 46.5653 5.26716
1 35.664 45.5269 7.50311
1 36.892 48.0903 7.38472
1 38.387 48.9713 4.95604
1 34.2763 46.5304 5.04444
1 38.4353 45.6811 7.51565
1 39.7774 48.0126 7.3917
1 41.2406 49.0473 5.06109
1 37.1231 46.521 5.09823
1 41.2847 45.6168 7.43997
1 42.6348 48.0487 7.40367
1 43.9589 50.6165 7.50027
1 39.9855 46.5012 4.99561
1 44.1453 45.6318 7.45651
1 45.4065 48.0962 7.47709
1 48.2692 48.2054 7.35518
1 44.1814 49.0751 5.04537
1 48.5444 43.2029 7.47517
1 49.8013 45.6935 7.35299
1 51.1473 48.2796 7.38478
1 47.0232 45.7276 7.49497
1 32.7349 50.5508 7.44327
1 35.4775 50.6458 7.46762
1 38.318 50.4341 7.33316
1 41.1234 50.5677 7.46693
1 46.752 50.5843 7.33809
1 49.6088 50.5472 7.32827
1 44.3099 34.2172 12.0848
1 48.5775 38.1374 7.37985
1 47.159 34.0921 12.3048
1 50.2503 35.8758 7.32415
1 50.1694 34.0235 12.2418
1 38.5965 37.5469 9.68133
1 38.4145 38.9491 12.1408
1 41.2962 37.3726 9.90555
1 41.2829 38.9153 12.2007
1 39.7546 36.5697 12.2268
1 43.0084 35.0757 9.715
1 44.3061 37.3832 9.78043
1 44.1951 38.8759 12.2267
1 42.651 36.3458 12.1899
1 45.962 34.9747 9.97524
1 47.2685 37.3056 9.79016
1 46.9539 38.9738 12.1136
1 45.6312 36.5059 12.2026
1 48.7674 34.7976 9.91434
1 50.07 37.2723 9.83232
1 49.87 39.0022 12.1815
1 48.5039 36.4335 12.2086
1 35.6185 42.331 9.7142
1 35.3361 43.7664 12.1755
1 36.972 39.8434 9.77811
1 38.3681 42.2524 9.8309
1 38.257 43.808 12.2908
1 36.8483 41.5133 12.1387
1 39.8113 39.7995 9.80184
1 41.2316 42.2412 9.77468
1 41.1381 43.8884 12.2452
1 39.7895 41.3194 12.3292
1 42.7621 39.7662 9.87622
1 44.1314 42.3551 9.72211
1 44.0494 43.8346 12.24
1 42.6628 41.4292 12.1589
1 45.7212 39.763 9.72686
1 47.0045 42.3933 9.73999
1 46.8535 43.9555 12.1382
1 45.5379 41.4578 12.0422
1 48.5438 39.7377 9.76001
1 49.8181 42.2914 9.86358
1 49.7254 43.9864 12.2166
1 48.3501 41.4421 12.1553
1 32.5318 47.2139 9.87212
1 32.5088 48.6887 12.2517
1 34.028 44.7498 9.83734
1 35.2326 47.1277 9.8133
1 35.1628 48.7622 12.3279
1 33.7558 46.1976 12.199
1 36.8714 44.7115 9.91873
1 38.2255 47.2476 9.84361
1 38.0377 48.8053 12.2314
1 36.6903 46.2997 12.2835
1 39.7594 44.7424 9.86656
1 41.0674 47.2578 9.89748
1 40.8756 48.807 12.1548
1 39.6615 46.33 12.226
1 42.6885 44.7784 9.91415
1 44.0238 47.2525 9.91034
1 43.8648 48.8264 12.304
1 42.5449 46.3396 12.2759
1 45.4568 44.8266 9.78122
1 46.8293 47.3406 9.75146
1 46.7223 48.8106 12.2644
1 45.3953 46.3854 12.2274
1 48.3496 44.8514 9.7384
1 49.7181 47.3855 9.64917
1 49.5414 48.9944 12.1603
1 48.2219 46.451 12.1709
1 33.7289 49.5499 9.90486
1 36.6411 49.5858 9.83238
1 39.6003 49.7425 9.81323
1 42.4598 49.6925 9.84259
1 45.3858 49.8526 9.87268
1 48.2512 49.8251 9.70296
1 44.2463 33.9395 17.1509
1 50.1505 32.6932 14.5005
1 47.0322 34.0794 16.9699
1 52.8459 32.7032 14.5925
1 49.868 34.0249 16.8251
1 38.485 37.4513 14.5315
1 38.0228 38.833 17.0428
1 41.1848 37.1391 14.5765
1 41.0788 38.6919 17.058
1 39.5717 36.5827 16.9734
1 42.9813 34.9154 14.6084
1 43.9851 37.2896 14.5354
1 43.9435 38.845 16.9398
1 42.4791 36.2509 16.946
1 45.5393 34.8932 14.502
1 46.8832 37.3222 14.5771
1 46.8658 38.9876 16.8886
1 45.3879 36.4406 16.8368
1 48.4794 34.8177 14.5899
1 49.8082 37.3885 14.5611
1 49.6759 39.0107 16.9226
1 48.2739 36.5577 16.9235
1 35.5639 42.1809 14.6739
1 35.148 43.793 16.9411
1 37.0189 39.8406 14.559
1 38.3031 42.2075 14.6835
1 38.0407 43.7042 17.0009
1 36.6263 41.2733 17.0513
1 39.775 39.6619 14.7484
1 41.2565 42.2333 14.6524
1 40.9678 43.7138 16.9232
1 39.5646 41.1617 17.0694
1 42.5626 39.7066 14.5159
1 43.9969 42.2033 14.6381
1 43.7686 43.7974 17.0821
1 42.4877 41.2759 17.0126
1 45.4102 39.8459 14.5333
1 46.8413 42.2407 14.5006
1 46.6778 43.8666 16.934
1 45.301 41.3445 16.9219
1 48.3057 39.7951 14.4826
1 49.6121 42.3314 14.5365
1 49.5058 43.8744 17.0232
1 48.1741 41.4443 16.9297
1 32.5926 47.0742 14.4409
1 32.4926 48.4815 16.8835
1 33.9546 44.6325 14.5202
1 35.2572 47.124 14.5555
1 35.1052 48.6899 16.9885
1 33.613 46.0706 16.9103
1 36.6897 44.6191 14.6282
1 38.1215 47.1169 14.596
1 38.0233 48.6567 16.9734
1 36.6099 46.296 16.9345
1 39.585 44.6489 14.5196
1 40.9489 47.1085 14.6399
1 40.9333 48.6594 16.9824
1 39.4778 46.1647 16.9381
1 42.5423 44.6867 14.6249
1 43.8763 47.1131 14.5913
1 43.8854 48.7922 16.9579
1 42.3875 46.33 16.9395
1 45.3993 44.6907 14.6263
1 46.7616 47.1914 14.6534
1 46.7191 48.8113 17.0537
1 45.2902 46.3168 17.0094
1 48.1992 44.7273 14.5186
1 49.638 47.2397 14.5494
1 49.5037 48.8403 16.9863
1 48.0729 46.2808 16.9542
1 33.6619 49.6838 14.6116
1 36.7052 49.5058 14.5657
1 39.5782 49.5245 14.58
1 42.4301 49.5798 14.538
1 45.1829 49.6092 14.6557
1 48.0697 49.6659 14.5494
1 43.9697 33.8636 21.7313
1 44.4131 32.5303 19.54
1 46.8543 33.8318 21.6725
1 47.074 32.5721 19.1939
1 49.6448 33.7655 21.6858
1 38.3603 37.1397 19.4139
1 38.0531 38.666 21.763
1 41.0731 36.9405 19.3205
1 40.9332 38.6624 21.7696
1 39.5618 36.4788 21.7473
1 42.6589 34.6482 19.3842
1 43.8672 37.1166 19.3066
1 43.7973 38.7982 21.7893
1 42.4091 36.2557 21.7529
1 45.5505 34.8986 19.441
1 46.8215 37.3894 19.2979
1 46.7182 38.9337 21.7383
1 45.34 36.3567 21.75
1 48.4291 34.9437 19.3506
1 49.8373 37.2868 19.3496
1 49.648 38.8652 21.6651
1 48.17 36.3871 21.7109
1 35.358 42.0688 19.3009
1 35.0495 43.5273 21.6939
1 36.7855 39.5775 19.4186
1 38.1046 41.9832 19.4298
1 37.9374 43.518 21.6949
1 36.5595 41.1367 21.7266
1 39.5769 39.44 19.4738
1 40.9918 42.0578 19.4226
1 40.8631 43.7621 21.7065
1 39.4842 41.1008 21.8327
1 42.4789 39.5856 19.4223
1 43.8428 42.1008 19.3425
1 43.7252 43.6812 21.7825
1 42.3484 41.2633 21.7932
1 45.3139 39.7147 19.3689
1 46.6532 42.1616 19.3942
1 46.7403 43.8965 21.6875
1 45.3271 41.3388 21.7642
1 48.1811 39.8053 19.2666
1 49.5932 42.2976 19.3646
1 49.5446 43.9111 21.8216
1 48.1531 41.3871 21.6968
1 32.4792 46.9215 19.2419
1 32.3893 48.3247 21.6591
1 33.8347 44.3345 19.3129
1 35.0712 46.8793 19.2872
1 34.9859 48.5299 21.6743
1 33.6871 45.907 21.6852
1 36.6536 44.4758 19.4501
1 37.9769 47.0319 19.3839
1 37.8499 48.5425 21.7645
1 36.5016 46.0467 21.6974
1 39.5414 44.5145 19.3598
1 40.8236 46.9748 19.4033
1 40.7536 48.6601 21.7888
1 39.3613 46.1771 21.6965
1 42.4073 44.5249 19.3813
1 43.7839 47.1087 19.3533
1 43.7383 48.598 21.7341
1 42.2938 46.1374 21.7208
1 45.2654 44.6607 19.3725
1 46.5807 47.1597 19.4165
1 46.5539 48.7749 21.773
1 45.2131 46.2254 21.8266
1 48.2107 44.6389 19.4108
1 49.4876 47.2111 19.3455
1 49.4937 48.8007 21.7353
1 48.0882 46.3935 21.7686
1 33.5044 49.4907 19.3834
1 36.4415 49.4013 19.3488
1 39.3869 49.4717 19.3619
1 42.2551 49.4875 19.3112
1 45.082 49.5827 19.357
1 47.9817 49.6114 19.3857
1 43.951 33.7678 26.5519
1 44.1775 32.4292 24.0198
1 46.8395 33.672 26.4758
1 46.7592 32.3417 23.9882
1 49.6847 33.7693 26.5544
1 38.1341 37.1722 24.1967
1 37.8761 38.6532 26.5041
1 40.929 36.9187 24.1383
1 40.8713 38.5752 26.4282
1 39.5071 36.3544 26.5928
1 42.669 34.6622 24.22
1 43.8625 37.1376 24.1168
1 43.8634 38.672 26.4985
1 42.3294 36.2019 26.5328
1 45.44 34.6894 24.1252
1 46.7573 37.2558 24.1835
1 46.6721 38.699 26.5643
1 45.2614 36.1922 26.566
1 48.2187 34.7231 24.1126
1 49.6353 37.2442 24.2112
1 49.6054 38.8091 26.4654
1 48.1345 36.2354 26.5853
1 35.2351 42.0207 24.1017
1 35.0436 43.5813 26.5059
1 36.6447 39.6114 24.1381
1 38.0111 41.9273 24.1333
1 37.9228 43.6635 26.5572
1 36.4106 41.132 26.4892
1 39.5265 39.4465 24.1463
1 40.9746 42.0059 24.187
1 40.7043 43.5733 26.5724
1 39.4323 41.0848 26.4211
1 42.3527 39.4955 24.1289
1 43.799 41.982 24.1799
1 43.7242 43.6684 26.536
1 42.379 41.0999 26.5303
1 45.2686 39.6368 24.134
1 46.76 42.069 24.0013
1 46.6036 43.6752 26.4376
1 45.2163 41.2438 26.5694
1 48.1822 39.7094 24.1073
1 49.5861 42.1852 24.1163
1 49.3993 43.7307 26.6075
1 48.1413 41.1843 26.4289
1 32.4282 46.8891 24.1137
1 32.4096 48.3806 26.4057
1 33.8452 44.4188 24.1101
1 35.1338 46.8793 24.0506
1 35.164 48.4288 26.4791
1 33.5365 45.9238 26.4932
1 36.6033 44.4051 24.1003
1 37.9952 46.9613 24.1923
1 37.9155 48.5783 26.5434
1 36.4935 45.9942 26.4499
1 39.4321 44.4622 24.0825
1 40.8207 46.9067 24.0962
1 40.8482 48.5336 26.4386
1 39.415 46.1339 26.4435
1 42.2485 44.4 24.1634
1 43.719 46.9421 24.1518
1 43.7423 48.6183 26.6218
1 42.2004 46.0645 26.5455
1 45.1659 44.5329 24.1216
1 46.5489 47.0551 24.1399
1 46.602 48.6846 26.5407
1 45.0907 46.2071 26.5909
1 48.089 44.5865 24.1694
1 49.34 47.1786 24.1722
1 49.4332 48.7957 26.4496
1 47.996 46.1858 26.481
1 33.4778 49.3669 24.0756
1 36.4783 49.3516 24.1247
1 39.371 49.4342 24.1581
1 42.2697 49.4387 24.1539
1 45.0793 49.4831 24.2889
1 47.9704 49.5521 24.1154
1 44.4557 32.2245 29.0063
1 47.0824 32.2069 28.6712
1 38.2407 37.0105 28.878
1 41.0097 36.8165 28.8301
1 42.7176 34.451 28.929
1 43.8284 36.9795 28.8318
1 45.4956 34.5673 28.8848
1 46.74 37.0534 28.9136
1 48.2919 34.4851 28.9667
1 49.6232 36.9592 28.9004
1 35.1485 41.8874 28.8694
1 36.6619 39.5074 28.861
1 37.9577 41.8544 28.9146
1 39.4888 39.361 28.8596
1 40.9038 41.8163 28.8208
1 42.3302 39.3188 28.7974
1 43.738 41.9276 28.9214
1 45.1758 39.5344 28.9477
1 46.6267 41.9575 28.8428
1 48.1306 39.5077 28.8875
1 49.5152 42.0954 28.8582
1 32.4072 46.8738 28.8001
1 33.7392 44.3164 28.8835
1 35.07 46.7499 28.8387
1 36.5312 44.3232 28.9021
1 37.9389 46.7595 28.9039
1 39.377 44.4117 28.9886
1 40.8217 46.8702 28.9
1 42.2642 44.3976 28.8493
1 43.5605 46.9839 29.0404
1 45.0804 44.4526 28.9092
1 46.4307 46.9662 28.8584
1 47.9073 44.5221 28.8587
1 49.4065 47.0117 28.8234
1 33.6131 49.3058 28.8458
1 36.4897 49.3187 28.8899
1 39.2752 49.3696 28.8314
1 42.1547 49.4932 28.7934
1 44.9767 49.4707 28.9371
1 47.9421 49.4792 28.8532
1 43.9925 33.616 31.3157
1 46.8564 33.5073 31.1821
1 49.7622 33.7162 31.2785
1 38.0057 38.5395 31.263
1 40.965 38.5059 31.2201
1 39.6261 36.2362 31.1835
1 43.8353 38.5202 31.256
1 42.471 36.0565 31.1893
1 46.6339 38.5417 31.2345
1 45.3281 36.0264 31.3165
1 49.6003 38.5755 31.1566
1 48.1597 36.0744 31.1981
1 35.0689 43.4005 31.2013
1 37.8781 43.4227 31.3389
1 36.4913 41.0057 31.3151
1 40.8708 43.4631 31.2062
1 39.3468 40.9654 31.2147
1 43.6853 43.5867 31.1822
1 42.2841 41.0176 31.2164
1 46.6153 43.6365 31.2205
1 45.2339 41.1385 31.2478
1 49.4816 43.7766 31.2034
1 48.0727 41.0957 31.1991
1 32.4305 48.2286 31.2488
1 35.0013 48.4875 31.1062
1 33.6561 45.8019 31.1362
1 37.9264 48.51 31.196
1 36.5185 46.0212 31.2327
1 40.7379 48.5177 31.1889
1 39.254 46.0545 31.3179
1 43.5719 48.6445 31.3527
1 42.1766 45.9876 31.329
1 46.3791 48.6696 31.1407
1 45.0417 46.1531 31.2012
1 49.3235 48.7349 31.1729
1 47.9855 46.225 31.1628
1 43.9824 33.701 35.9498
1 47.0214 32.2095 33.5339
1 46.8624 33.5609 35.9579
1 49.7451 32.1706 33.7573
1 49.7098 33.579 36.0495
1 38.2332 36.9649 33.4674
1 37.9083 38.4647 35.9558
1 40.9357 36.7419 33.5828
1 40.8456 38.3662 35.9887
1 39.5019 36.1243 35.8825
1 42.501 34.55 33.5092
1 43.8609 36.825 33.5513
1 43.6121 38.4309 35.8462
1 42.3303 35.9345 35.9782
1 45.3896 34.3572 33.5999
1 46.6476 36.8794 33.6895
1 46.5543 38.5521 36.0195
1 45.3183 35.9999 36.0469
1 48.2579 34.5008 33.6624
1 49.6208 36.9988 33.5102
1 49.5901 38.7197 35.8762
1 48.2905 36.092 35.9775
1 35.1293 41.8698 33.6895
1 35.0763 43.3729 35.8922
1 36.7083 39.3045 33.5887
1 37.993 41.8056 33.6449
1 37.8455 43.3711 36.0038
1 36.435 40.8716 35.9651
1 39.4902 39.2915 33.6603
1 40.8011 41.8767 33.6567
1 40.7435 43.4776 35.93
1 39.373 40.9433 36.0292
1 42.2698 39.2904 33.5491
1 43.7123 41.7807 33.5132
1 43.6821 43.4977 35.8449
1 42.2822 40.9823 35.9418
1 45.1754 39.3669 33.6236
1 46.6487 41.9437 33.4902
1 46.483 43.6433 35.8262
1 45.1031 41.0827 35.7863
1 48.068 39.3688 33.5025
1 49.5066 41.9587 33.4935
1 49.4209 43.6734 35.8056
1 48.0341 41.1494 35.8666
1 32.4396 46.8339 33.6357
1 32.3285 48.4473 35.9519
1 33.7545 44.3337 33.6386
1 35.0125 46.7611 33.5254
1 34.9724 48.4743 35.913
1 33.6126 45.9211 35.8533
1 36.4836 44.2782 33.5481
1 37.929 46.842 33.638
1 37.8606 48.4841 35.9522
1 36.4948 45.9561 35.8662
1 39.3916 44.3329 33.6126
1 40.6991 46.8421 33.6847
1 40.6773 48.4639 35.9274
1 39.2549 45.853 36.0707
1 42.2641 44.3242 33.5874
1 43.6112 46.859 33.6019
1 43.5831 48.6702 35.9775
1 42.2492 46.0307 35.9137
1 45.0798 44.418 33.5373
1 46.5157 47.0285 33.5108
1 46.4126 48.6577 36.0203
1 45.0285 46.1006 35.8442
1 47.9952 44.466 33.471
1 49.3161 47.1478 33.6515
1 49.2969 48.8326 35.8688
1 47.8777 46.1762 35.8536
1 33.5484 49.3101 33.6071
1 36.424 49.3044 33.5097
1 39.2708 49.4135 33.5266
1 42.0744 49.3472 33.6596
1 44.9996 49.4711 33.6105
1 47.8555 49.547 33.5343
1 43.9935 33.6403 40.5919
1 47.3634 32.1535 38.079
1 46.7781 33.5885 40.5683
1 49.9306 32.1683 38.3711
1 49.6063 33.6402 40.5841
1 38.1662 36.9901 38.2338
1 37.8499 38.5215 40.6408
1 40.8707 36.7065 38.2733
1 40.8028 38.6049 40.7595
1 39.4721 36.2848 40.6211
1 42.7216 34.4838 38.2746
1 43.8021 36.8962 38.2899
1 43.7556 38.5167 40.5072
1 42.3405 36.0103 40.5586
1 45.3958 34.282 38.2156
1 46.6691 36.9146 38.2098
1 46.6081 38.691 40.5875
1 45.3364 36.0548 40.5735
1 48.3881 34.5962 38.2985
1 49.6886 37.1529 38.3494
1 49.5227 38.6954 40.7142
1 48.1981 36.1034 40.5845
1 35.0345 41.9549 38.306
1 34.9904 43.5551 40.5872
1 36.6527 39.4847 38.305
1 37.9335 41.8344 38.347
1 37.8399 43.5009 40.7159
1 36.43 41.0569 40.6907
1 39.433 39.3279 38.318
1 40.8689 41.79 38.2928
1 40.6445 43.5104 40.5632
1 39.2818 40.9111 40.6529
1 42.2105 39.2633 38.3338
1 43.6631 41.9364 38.2664
1 43.645 43.6489 40.6889
1 42.3097 41.0232 40.6835
1 45.0968 39.4642 38.2839
1 46.5631 41.9955 38.2138
1 46.5557 43.636 40.5393
1 45.1658 41.0958 40.5821
1 48.0589 39.5445 38.2666
1 49.4062 42.0672 38.1188
1 49.4778 43.7744 40.5057
1 48.1533 41.2283 40.5502
1 32.3806 46.9605 38.1811
1 32.3848 48.4361 40.5071
1 33.7126 44.4167 38.2422
1 35.0756 46.8485 38.326
1 35.0629 48.5819 40.7019
1 33.5701 46.0479 40.5983
1 36.4645 44.3344 38.2547
1 37.9619 46.8414 38.3664
1 37.882 48.543 40.6192
1 36.4412 46.0886 40.5877
1 39.2965 44.3027 38.3382
1 40.7493 46.9118 38.3152
1 40.7999 48.5903 40.6702
1 39.3947 46.0376 40.6544
1 42.1853 44.3652 38.2368
1 43.6046 47.005 38.2071
1 43.6025 48.6164 40.6391
1 42.2286 46.0974 40.6042
1 44.9992 44.4134 38.2005
1 46.4316 46.9449 38.2384
1 46.4198 48.7853 40.5734
1 45.135 46.2206 40.5532
1 47.9019 44.5303 38.138
1 49.3696 46.9856 38.207
1 49.3664 48.7975 40.4588
1 48.063 46.237 40.5354
1 33.7402 49.4326 38.2879
1 36.5455 49.3951 38.2925
1 39.3018 49.4578 38.2824
1 42.1404 49.4406 38.2403
1 45.0158 49.5061 38.2854
1 47.8252 49.5283 38.1718
1 44.491 32.3015 43.0718
1 47.1237 32.2311 42.837
1 38.2537 37.0512 42.9528
1 40.9841 36.8805 43.0132
1 42.641 34.4525 42.8783
1 43.7835 36.9476 42.8266
1 45.4782 34.6413 42.9438
1 46.7309 37.0981 42.9266
1 48.2747 34.6083 42.9748
1 49.5887 37.0706 42.9513
1 35.2963 42.0396 43.0405
1 36.7235 39.513 42.9598
1 38.0263 41.9241 42.9305
1 39.4079 39.3928 43.018
1 40.8257 41.903 43.0364
1 42.3192 39.4784 42.9495
1 43.6969 42.0396 42.8796
1 45.1032 39.4912 42.957
1 46.5153 42.0333 42.8859
1 48.0447 39.659 42.9361
1 49.4409 42.1073 42.8053
1 32.3853 47.0956 42.9891
1 33.824 44.5739 43.0463
1 35.0747 47.0923 43.0308
1 36.4126 44.5281 42.9802
1 37.9435 47.0335 42.9562
1 39.3768 44.4896 42.9722
1 40.7922 47.0526 42.9435
1 42.1422 44.45 42.914
1 43.649 47.1012 42.9978
1 44.9788 44.6031 42.8394
1 46.5474 47.1337 42.8781
1 47.9974 44.5503 42.8363
1 49.5222 47.2137 42.8234
1 33.492 49.5496 42.9662
1 36.5055 49.611 42.98
1 39.3081 49.5604 42.9489
1 42.2006 49.6456 42.9409
1 45.056 49.6753 42.9738
1 47.9345 49.758 42.7776
1 43.9548 33.7338 45.299
1 46.7611 33.5325 45.2098
1 49.6816 33.5671 45.2141
1 37.9229 38.7163 45.3082
1 40.8776 38.7321 45.3448
1 39.4974 36.4689 45.4069
1 43.6916 38.6546 45.2148
1 42.3808 36.153 45.3366
1 46.6606 38.7371 45.2153
1 45.2322 36.1767 45.2455
1 49.5032 38.7287 45.2129
1 48.045 36.1504 45.2085
1 35.0222 43.6983 45.3971
1 37.8918 43.6691 45.2903
1 36.4114 41.1927 45.3422
1 40.7892 43.6668 45.2996
1 39.2905 41.1438 45.4417
1 43.6714 43.7139 45.1997
1 42.3092 41.2128 45.2984
1 46.5001 43.7641 45.178
1 45.1964 41.1078 45.2222
1 49.4453 43.775 45.1473
1 48.0528 41.2851 45.2207
1 32.3281 48.5195 45.2492
1 34.9415 48.738 45.3235
1 33.4611 46.0949 45.3581
1 37.8679 48.7592 45.187
1 36.3568 46.191 45.2628
1 40.8119 48.8332 45.2469
1 39.2902 46.1303 45.2463
1 43.6268 48.788 45.2877
1 42.1612 46.3054 45.1643
1 46.5365 48.8205 45.1174
1 45.1103 46.3392 45.1755
1 49.3626 48.9867 45.0219
1 48.0029 46.3259 45.1677
1 43.8921 33.9345 49.9825
1 44.3051 32.4785 47.6931
1 46.7791 33.8195 49.9427
1 46.9476 32.3415 47.6464
1 49.6562 33.6758 49.8835
1 38.1514 37.2333 47.6988
1 37.9378 38.872 50.0182
1 40.9249 36.9508 47.6748
1 40.8902 38.704 49.98
1 39.2739 36.4911 50.0576
1 42.6042 34.67 47.6642
1 43.742 37.0404 47.6538
1 43.8025 38.8216 49.8508
1 42.3386 36.1687 49.9564
1 45.464 34.7736 47.6779
1 46.7353 37.2682 47.5366
1 46.6131 38.8724 49.8411
1 45.2259 36.3342 49.9145
1 48.2218 34.6063 47.5581
1 49.576 37.1716 47.5133
1 49.4711 38.848 49.7969
1 48.1332 36.2179 49.8176
1 35.1303 41.9886 47.7365
1 35.0133 43.7963 49.9807
1 36.6398 39.6453 47.6071
1 37.8861 42.0986 47.6455
1 37.8765 43.7627 49.9146
1 36.5163 41.2818 50.086
1 39.4058 39.6042 47.7414
1 40.8811 42.1046 47.6357
1 40.7825 43.8152 49.9281
1 39.4225 41.3476 49.9867
1 42.3167 39.5377 47.7069
1 43.7805 42.1423 47.5462
1 43.6987 43.9644 49.8572
1 42.3248 41.2609 49.9094
1 45.1775 39.5949 47.5065
1 46.6114 42.2928 47.5305
1 46.5846 43.8949 49.7947
1 45.149 41.3396 49.9094
1 48.02 39.7322 47.4877
1 49.5461 42.1941 47.5356
1 49.5224 43.9889 49.811
1 48.0855 41.3788 49.7537
1 32.3861 47.1286 47.6476
1 32.1784 48.7798 49.835
1 33.7427 44.6784 47.6502
1 35.0398 47.1093 47.6266
1 34.8948 48.8912 49.927
1 33.5557 46.346 49.9602
1 36.4481 44.5677 47.6243
1 37.8589 47.1554 47.4861
1 37.7647 48.878 49.8713
1 36.3079 46.2118 49.975
1 39.3401 44.6513 47.5411
1 40.7379 47.2695 47.5443
1 40.7478 48.9191 49.8349
1 39.2062 46.3442 49.8308
1 42.2518 44.6374 47.54
1 43.5954 47.189 47.5324
1 43.7892 48.9451 49.8649
1 42.182 46.4123 49.884
1 45.1273 44.7479 47.5014
1 46.5525 47.2569 47.4825
1 46.6511 49.0013 49.744
1 45.1582 46.4351 49.8202
1 48.0217 44.787 47.4831
1 49.4451 47.2732 47.4978
1 49.4978 49.0613 49.6897
1 48.0635 46.4774 49.828
1 33.4763 49.7249 47.6103
1 36.3846 49.6346 47.5907
1 39.2183 49.7014 47.5437
1 42.1824 49.7387 47.5875
1 45.0824 49.732 47.5299
1 47.9952 49.7484 47.3477
1 43.9948 33.9738 54.8156
1 46.9557 32.3596 52.3522
1 46.7876 33.8144 54.6245
1 49.6097 32.3873 52.2194
1 49.6096 33.7715 54.5265
1 38.1527 37.2987 52.4854
1 38.0281 39.0662 54.7739
1 40.8961 37.1269 52.232
1 40.9138 38.9106 54.6321
1 39.5337 36.6262 54.673
1 42.6118 34.8319 52.358
1 43.8739 37.19 52.3222
1 43.7915 38.873 54.5782
1 42.4452 36.4375 54.6651
1 45.3839 34.5597 52.2738
1 46.6929 37.1384 52.1273
1 46.7617 38.9083 54.4223
1 45.2747 36.3649 54.4873
1 48.2947 34.7477 52.1598
1 49.5689 37.3166 52.0641
1 49.6115 38.9172 54.3829
1 48.117 36.3663 54.5133
1 35.1855 42.1776 52.3033
1 35.0887 44.0061 54.6466
1 36.7344 39.7243 52.3599
1 38.0114 42.267 52.3655
1 38.0187 43.8862 54.62
1 36.5122 41.4986 54.641
1 39.4887 39.6942 52.391
1 40.8958 42.1613 52.2788
1 40.8342 44.0036 54.5017
1 39.3921 41.4659 54.6836
1 42.3926 39.6461 52.2006
1 43.7605 42.302 52.1882
1 43.6483 44.0037 54.396
1 42.3576 41.3959 54.5218
1 45.2497 39.6785 52.2692
1 46.7084 42.2493 52.1171
1 46.566 43.9677 54.5106
1 45.2228 41.4462 54.5485
1 48.1149 39.8113 52.0988
1 49.5965 42.2564 52.1797
1 49.5998 43.99 54.417
1 48.0863 41.4586 54.4663
1 32.4465 47.3377 52.2578
1 32.3155 48.9559 54.5367
1 33.7876 44.8526 52.3497
1 35.0524 47.3817 52.3294
1 34.9994 49.0029 54.6306
1 33.6163 46.4935 54.5814
1 36.442 44.7032 52.2694
1 37.9279 47.3048 52.2488
1 37.9078 49.1679 54.5151
1 36.4708 46.4467 54.5533
1 39.2803 44.7252 52.2365
1 40.7582 47.3397 52.1002
1 40.7729 48.9858 54.4383
1 39.4035 46.5926 54.502
1 42.2286 44.7403 52.1556
1 43.7352 47.274 52.1442
1 43.6855 49.0639 54.3984
1 42.3012 46.5615 54.4059
1 45.2487 44.757 52.1749
1 46.5919 47.3049 52.0225
1 46.6201 49.0399 54.3674
1 45.2284 46.4448 54.4012
1 48.0911 44.8131 52.1025
1 49.5101 47.357 52.1223
1 49.6208 48.9501 54.4058
1 48.0065 46.4895 54.4369
1 33.4693 49.8763 52.2448
1 36.4347 49.8941 52.1706
1 39.2449 49.8869 52.1271
1 42.2229 49.8569 52.0835
1 45.1691 49.8766 52.0711
1 48.1036 49.9105 52.1031
1 44.11 34.0378 59.3747
1 44.5003 32.6066 57.2183
1 46.9903 33.9009 59.1137
1 47.0656 32.3077 56.8723
1 49.8382 33.9401 59.2029
1 38.2878 37.5243 57.0867
1 38.0078 39.1385 59.3173
1 41.0157 37.2196 57.0252
1 40.9791 38.9131 59.24
1 39.5262 36.7185 59.3173
1 42.6865 34.7903 57.1182
1 43.8186 37.2618 56.9536
1 43.8297 38.9284 59.2628
1 42.3831 36.3392 59.3006
1 45.5759 34.9346 56.8746
1 46.8038 37.4503 56.7953
1 46.7825 39.0019 59.1361
1 45.3587 36.4319 59.2216
1 48.315 34.7667 56.8151
1 49.7005 37.3809 56.7373
1 49.696 39.0143 59.0699
1 48.3372 36.5413 59.0568
1 35.1989 42.5347 57.005
1 35.1425 44.0346 59.2632
1 36.6865 40.0211 57.0054
1 38.0999 42.4116 56.9576
1 38.0101 44.0237 59.2653
1 36.6019 41.6732 59.3284
1 39.5723 39.8456 56.9984
1 40.9829 42.3907 56.8704
1 40.9872 44.0977 59.1432
1 39.5698 41.5786 59.2288
1 42.3974 39.7438 56.8921
1 43.7966 42.3392 56.7891
1 43.7802 44.0812 59.0701
1 42.3743 41.5306 59.1851
1 45.1555 39.7961 56.882
1 46.7323 42.3238 56.7828
1 46.7073 44.0294 59.0903
1 45.2637 41.4957 59.128
1 48.1902 39.9039 56.6856
1 49.6555 42.3143 56.728
1 49.6412 44.0691 59.0214
1 48.2358 41.5552 59.0127
1 32.407 47.5747 57.0497
1 32.5331 49.0058 59.3142
1 33.8271 44.9489 56.9806
1 35.0763 47.3226 56.948
1 35.0991 49.2097 59.1822
1 33.8009 46.4821 59.2906
1 36.6515 44.9721 56.9857
1 38.021 47.4097 56.7664
1 37.9858 49.0814 59.1286
1 36.6133 46.6811 59.1681
1 39.5141 44.9501 56.8953
1 40.9341 47.4929 56.878
1 40.9157 49.1103 59.0915
1 39.479 46.5912 59.1645
1 42.2871 44.9545 56.7992
1 43.7337 47.4101 56.7363
1 43.823 49.1992 59.0586
1 42.389 46.6623 59.1243
1 45.2212 44.8712 56.7984
1 46.6134 47.4715 56.6585
1 46.6759 49.191 58.866
1 45.2721 46.6755 59.001
1 48.1885 44.8517 56.7455
1 49.541 47.3815 56.7023
1 49.5703 49.1993 58.9131
1 48.0693 46.6553 58.9581
1 33.538 49.8969 56.8917
1 36.5442 49.9617 56.8307
1 39.4354 49.9303 56.7522
1 42.2998 49.8917 56.6231
1 45.1783 50.0272 56.6792
1 48.1112 49.973 56.6061
1 44.0696 34.2003 63.9008
1 47.3083 32.723 61.5238
1 46.9438 34.0218 63.8054
1 49.8555 32.5016 61.5245
1 49.7105 33.8979 63.7805
1 38.2219 37.5394 61.611
1 38.1727 39.148 63.8914
1 41.031 37.4067 61.5298
1 41.0406 39.0925 63.8145
1 39.5499 36.7901 63.8313
1 42.7246 35.0042 61.6547
1 43.9671 37.4114 61.5361
1 43.9632 39.0477 63.8396
1 42.5449 36.4614 63.9247
1 45.5704 34.8166 61.5037
1 46.8684 37.3998 61.4342
1 46.8803 39.0466 63.8183
1 45.4699 36.5004 63.8404
1 48.4142 35.027 61.4226
1 49.6732 37.4886 61.4061
1 49.7571 39.1931 63.6148
1 48.351 36.6052 63.7322
1 35.2665 42.4386 61.6557
1 35.3691 44.0925 63.9337
1 36.7557 39.9705 61.6123
1 38.0379 42.4243 61.4996
1 38.1047 44.0971 63.948
1 36.7512 41.5582 63.9305
1 39.5936 39.9173 61.5071
1 41.0026 42.4703 61.5522
1 40.9289 44.1943 63.7953
1 39.6317 41.5722 63.8105
1 42.4274 39.9225 61.5428
1 43.9587 42.4619 61.3307
1 43.9469 44.1167 63.6631
1 42.5164 41.6338 63.8512
1 45.3874 39.9105 61.5068
1 46.8021 42.3694 61.3347
1 46.8383 44.0933 63.5894
1 45.3871 41.6219 63.7506
1 48.2482 39.9585 61.3677
1 49.7736 42.4836 61.2479
1 49.6719 44.1517 63.588
1 48.2214 41.6656 63.7017
1 32.604 47.4891 61.8347
1 32.5891 49.0604 64.0645
1 33.9712 44.9894 61.7267
1 35.1889 47.5547 61.6111
1 35.2521 49.2676 63.8749
1 33.7941 46.6277 64.0374
1 36.6418 45.0577 61.5368
1 38.0661 47.4298 61.6291
1 38.1934 49.2261 63.6882
1 36.6427 46.6561 63.9242
1 39.5676 44.9687 61.465
1 40.9121 47.4851 61.4191
1 41.0693 49.1694 63.6626
1 39.5718 46.6572 63.7864
1 42.4498 44.9929 61.4437
1 43.8528 47.5514 61.4169
1 43.9722 49.2411 63.6406
1 42.5193 46.6201 63.7682
1 45.2901 45.0128 61.3764
1 46.8051 47.5486 61.3064
1 46.7894 49.2262 63.5482
1 45.3673 46.7088 63.6502
1 48.2634 45.0076 61.2414
1 49.6747 47.5055 61.1809
1 49.6797 49.1171 63.5522
1 48.2107 46.5725 63.5707
1 33.7333 50.068 61.6082
1 36.6422 50.0697 61.4138
1 39.5081 50.0579 61.395
1 42.3819 50.0358 61.3702
1 45.3183 50.0759 61.2554
1 48.2185 49.968 61.1386
1 44.1896 34.2872 68.5522
1 47.0631 32.8125 66.1123
1 47.1128 34.0907 68.5319
1 49.6464 32.6303 66.2496
1 49.9318 34.073 68.4684
1 38.5032 37.6008 66.0906
1 38.2255 39.1391 68.4759
1 41.1355 37.3734 66.1591
1 41.2316 39.1128 68.4479
1 39.7822 36.8495 68.5426
1 42.749 35.0545 66.1934
1 44.0648 37.4878 66.1226
1 44.1905 39.1756 68.4939
1 42.6436 36.6751 68.4835
1 45.464 34.9488 66.1997
1 46.8924 37.5055 66.1054
1 47.0445 39.2737 68.3204
1 45.615 36.703 68.4863
1 48.3623 34.9784 66.0771
1 49.8403 37.5353 66.0165
1 49.8368 39.185 68.404
1 48.4618 36.6755 68.3318
1 35.5689 42.4778 66.2397
1 35.4284 44.0341 68.5693
1 36.9512 39.9821 66.152
1 38.3177 42.3969 66.15
1 38.1873 44.0311 68.448
1 36.7967 41.5495 68.5322
1 39.8359 39.981 66.1922
1 41.0996 42.4813 66.0819
1 41.0376 44.1137 68.4692
1 39.7136 41.5954 68.5093
1 42.5866 39.9481 66.1533
1 44.0086 42.4816 66.0865
1 44.035 44.301 68.3384
1 42.6936 41.7598 68.4284
1 45.474 40.0309 66.154
1 46.9639 42.5813 66.012
1 46.9227 44.32 68.406
1 45.5879 41.8282 68.3794
1 48.3326 40.0073 66.0202
1 49.8473 42.5175 65.9571
1 49.8378 44.271 68.2542
1 48.423 41.7643 68.2287
1 32.6179 47.4812 66.4109
1 32.6824 48.8519 68.7039
1 33.9449 45.0253 66.2934
1 35.3018 47.5771 66.3622
1 35.3167 49.1738 68.688
1 33.9814 46.423 68.6946
1 36.7048 44.9919 66.2469
1 38.1724 47.576 66.0927
1 38.1732 49.1839 68.4507
1 36.8233 46.7036 68.5021
1 39.6244 45.0188 66.1359
1 41.064 47.5599 66.0797
1 41.1262 49.2231 68.3623
1 39.6291 46.7652 68.4286
1 42.5152 44.9517 66.067
1 43.951 47.5781 65.978
1 43.9666 49.2949 68.3773
1 42.5824 46.7495 68.3848
1 45.4188 45.051 65.995
1 46.8143 47.5552 65.9714
1 46.9232 49.2659 68.2951
1 45.4972 46.7062 68.2829
1 48.3114 45.1016 65.9796
1 49.7751 47.5843 65.8904
1 49.6961 49.3535 68.2027
1 48.416 46.7922 68.297
1 33.8202 50.084 66.3045
1 36.8032 49.9757 66.1289
1 39.6437 50.0857 66.0142
1 42.599 50.0428 65.9379
1 45.5011 50.1068 65.9878
1 48.3086 50.0993 65.8221
1 44.4049 34.1866 73.0952
1 44.4756 32.8543 70.6944
1 47.1567 34.2003 73.1341
1 47.0714 32.7044 70.9104
1 50.0427 34.1988 73.0766
1 38.4794 37.5314 70.9417
1 38.3913 39.2128 73.2084
1 41.2222 37.3964 70.8349
1 41.2841 39.0973 73.1287
1 39.8297 36.8534 73.2397
1 42.9943 35.1281 71.0022
1 44.2082 37.5411 70.7501
1 44.2263 39.191 73.0783
1 42.7616 36.708 73.1997
1 45.8049 35.1701 70.7376
1 47.1311 37.6801 70.7242
1 47.1091 39.3312 73.0218
1 45.6012 36.796 73.0357
1 48.6711 35.2045 70.8119
1 50.0198 37.6203 70.7241
1 50.0493 39.3314 73.0374
1 48.5513 36.8471 73.0588
1 35.5961 42.5063 70.9031
1 35.5409 44.0794 73.3656
1 37.0995 40.0137 70.9347
1 38.3321 42.3767 70.7923
1 38.3978 44.1312 73.112
1 36.9298 41.6394 73.2029
1 39.8315 39.8987 70.8613
1 41.2601 42.3861 70.7371
1 41.2385 44.103 73.0883
1 39.7851 41.6409 73.1131
1 42.746 39.9971 70.7544
1 44.136 42.5856 70.7221
1 44.1235 44.1987 73.1111
1 42.7702 41.6119 73.1229
1 45.6216 40.1616 70.6995
1 47.0479 42.5984 70.593
1 46.9879 44.2186 73.0064
1 45.6299 41.6604 73.045
1 48.4531 40.1458 70.674
1 49.9376 42.5399 70.5343
1 49.978 44.3138 72.8835
1 48.5248 41.8125 72.9818
1 32.7065 47.5394 71.0815
1 32.6975 49.032 73.3413
1 34.1944 44.9245 71.0675
1 35.3333 47.504 70.9693
1 35.4078 49.026 73.2821
1 34.0068 46.5201 73.3161
1 36.7879 44.933 70.8482
1 38.3297 47.4852 70.864
1 38.2691 49.1405 73.1832
1 36.8932 46.5864 73.2721
1 39.7725 44.9953 70.6824
1 41.2054 47.5469 70.7271
1 41.1869 49.1834 73.0057
1 39.7917 46.556 73.0933
1 42.5869 45.0133 70.7327
1 44.082 47.6561 70.7519
1 44.0357 49.2608 73.0362
1 42.6774 46.6296 73.0624
1 45.5131 45.0615 70.7406
1 46.9523 47.4793 70.6156
1 46.8677 49.2419 73.0482
1 45.5406 46.7763 73.0135
1 48.4602 45.0566 70.7313
1 49.8628 47.621 70.6069
1 49.7509 49.3504 72.9085
1 48.4309 46.8051 72.9803
1 33.8698 49.9893 71.0602
1 36.7715 49.9526 70.8812
1 39.6629 50.0049 70.739
1 42.6046 50.0763 70.7044
1 45.4757 50.0454 70.6537
1 48.3384 50.0519 70.6982
1 44.5005 34.2934 77.796
1 44.8424 32.9264 75.3416
1 47.3563 34.2604 77.8045
1 47.5359 32.8204 75.3899
1 50.2702 34.3381 77.7732
1 38.5848 37.584 75.5376
1 38.5201 39.1419 77.9685
1 41.441 37.4245 75.5466
1 41.4672 39.0966 77.9293
1 40.0491 36.963 77.8804
1 43.2356 35.0372 75.5475
1 44.2579 37.517 75.4101
1 44.3518 39.1395 77.8406
1 42.8648 36.6103 77.8284
1 46.0375 35.1338 75.5535
1 47.1859 37.71 75.4356
1 47.2747 39.2056 77.8256
1 45.7141 36.7565 77.8887
1 48.7947 35.2788 75.3659
1 50.1041 37.7152 75.3591
1 50.1221 39.3321 77.7233
1 48.7032 36.7227 77.8494
1 35.7095 42.452 75.6253
1 35.5528 43.9898 77.88
1 37.1456 40.0577 75.5884
1 38.4809 42.5004 75.551
1 38.4569 44.062 77.9022