5538
Atoms. Timestep: 60000
1 42.6331 36.2862 4.58778
1 47.0432 35.4947 6.92931
1 45.4252 36.2425 4.64228
1 48.7658 33.402 6.81363
1 49.9514 34.11 4.53322
1 36.9643 38.1492 7.0823
1 35.6113 38.9653 4.93668
1 39.8776 37.9609 6.95677
1 39.7436 41.3958 4.55602
1 38.2862 38.7525 4.70815
1 41.3924 35.676 6.99955
1 42.8013 37.9358 6.91984
1 42.5876 41.3153 4.62917
1 41.0912 38.7524 4.59373
1 44.0961 35.4499 6.92868
1 45.6325 37.9248 6.8691
1 45.439 41.4668 4.68848
1 44.0287 38.7472 4.49418
1 48.3325 36.401 4.54632
1 50.036 40.6219 6.93451
1 49.823 38.9886 4.63596
1 46.8716 38.9117 4.56376
1 33.9148 43.0223 6.985
1 32.6245 43.9919 4.7951
1 35.47 40.5609 7.05092
1 36.7989 42.9111 6.98257
1 35.3987 43.8565 4.59101
1 34.1352 41.4858 4.82744
1 38.3783 40.3948 6.97884
1 39.7124 42.9746 6.88808
1 38.2135 43.9555 4.69832
1 36.8632 41.3253 4.67628
1 41.3538 40.4068 6.93387
1 42.6956 42.9691 6.92478
1 42.7031 46.3929 4.53797
1 41.2235 43.8845 4.72045
1 44.2118 40.4739 6.92358
1 45.6306 43.0748 6.92537
1 46.9419 43.9462 4.57469
1 44.0751 43.985 4.60795
1 46.9767 40.513 7.00411
1 51.404 43.2183 6.98196
1 49.7963 44.1175 4.70998
1 48.3772 41.322 4.61399
1 31.2516 47.9501 7.03018
1 32.3432 48.894 4.73329
1 32.504 45.4764 7.18046
1 33.8631 47.9391 7.05761
1 35.3587 48.8494 4.74119
1 31.2996 46.2846 4.9553
1 35.3102 45.3899 6.93854
1 36.785 48.0107 7.05038
1 38.2092 48.8679 4.69444
1 34.0096 46.413 4.69665
1 38.2165 45.4962 7.02175
1 39.6859 48.0177 7.06283
1 41.0446 48.8966 4.70593
1 36.8871 46.3965 4.75856
1 41.1922 45.5023 6.94972
1 42.6336 47.9751 6.92892
1 44.0348 50.5236 7.09792
1 39.7417 46.4166 4.69812
1 44.2007 45.5698 6.85716
1 45.5834 48.0568 6.92479
1 48.4099 48.0675 6.93219
1 43.9826 48.8756 4.77147
1 48.4449 43.0467 6.961
1 49.8764 45.6229 6.98644
1 51.2316 48.1228 7.11872
1 47.0081 45.5695 6.88442
1 32.4584 50.4304 7.05554
1 35.2031 50.4694 7.03545
1 38.1181 50.5138 7.05454
1 41.1091 50.5435 7.18611
1 46.9371 50.4966 7.05251
1 49.8543 50.5731 7.03782
1 44.4129 33.9417 11.4798
1 48.5542 38.0714 6.88319
1 47.1721 33.9356 11.3917
1 50.0566 35.7774 6.81872
1 50.0459 33.9148 11.3864
1 38.567 37.447 9.27988
1 38.4329 38.8563 11.6483
1 41.3984 37.2336 9.29354
1 41.3449 38.8285 11.5966
1 39.9393 36.6033 11.5838
1 42.8635 34.8088 9.14687
1 44.2611 37.1478 9.21415
1 44.2751 38.764 11.6233
1 42.809 36.2536 11.4462
1 45.6388 34.7596 9.1772
1 47.1849 37.1616 9.22703
1 47.1159 38.8889 11.5701
1 45.7391 36.3178 11.5668
1 48.6161 34.7008 9.11761
1 49.9858 37.1441 9.3211
1 49.9763 38.8624 11.5688
1 48.603 36.331 11.5295
1 35.3866 42.1861 9.35817
1 35.3106 43.7262 11.6075
1 36.9574 39.7856 9.46626
1 38.2503 42.1961 9.22651
1 38.2404 43.7125 11.6362
1 36.8426 41.3415 11.6815
1 39.8304 39.7645 9.32275
1 41.2413 42.209 9.23332
1 41.3288 43.8245 11.4955
1 39.8045 41.3438 11.7063
1 42.7439 39.6919 9.28199
1 44.1375 42.181 9.15866
1 44.1782 43.8738 11.5234
1 42.7849 41.3979 11.5736
1 45.6993 39.646 9.26069
1 47.1416 42.2906 9.32059
1 47.0139 43.9468 11.6029
1 45.6155 41.3148 11.5689
1 48.6575 39.7195 9.2071
1 49.9611 42.3825 9.29822
1 49.9081 43.9288 11.6308
1 48.5322 41.3304 11.5482
1 32.3878 47.0753 9.4554
1 32.4402 48.5727 11.759
1 33.9302 44.6264 9.26811
1 35.2058 47.1474 9.38145
1 35.2011 48.6803 11.7792
1 33.8847 46.2301 11.6654
1 36.7573 44.6699 9.32419
1 38.2333 47.2075 9.31468
1 38.0601 48.686 11.6809
1 36.7253 46.1473 11.6249
1 39.7064 44.6849 9.23854
1 41.2123 47.1477 9.22158
1 41.0352 48.7534 11.6635
1 39.7031 46.1989 11.5216
1 42.6521 44.7329 9.25265
1 44.0808 47.1935 9.38177
1 44.0023 48.8567 11.6832
1 42.616 46.3954 11.6699
1 45.5868 44.7738 9.16448
1 47.0275 47.2745 9.25708
1 46.8667 48.8432 11.6676
1 45.5456 46.3127 11.6188
1 48.4648 44.8181 9.26819
1 49.7754 47.235 9.41451
1 49.7851 48.9859 11.7585
1 48.3462 46.4266 11.6106
1 33.6532 49.5938 9.3577
1 36.4963 49.6138 9.46515
1 39.5793 49.6499 9.38515
1 42.5556 49.6602 9.41784
1 45.4243 49.6164 9.31966
1 48.3764 49.7433 9.28021
1 44.5548 33.7944 16.1176
1 50.3586 32.4591 13.6623
1 47.3375 33.8028 16.0794
1 53.0053 32.4935 14.0581
1 50.2281 33.6866 16.1742
1 38.7577 37.2541 13.9031
1 38.5505 38.7363 16.2409
1 41.4893 36.9466 13.8612
1 41.5093 38.7151 16.2254
1 40.0455 36.4257 16.2399
1 43.1699 34.645 13.7045
1 44.3074 37.0583 13.8074
1 44.2713 38.7643 16.2382
1 42.9127 36.1414 16.1561
1 45.9637 34.5543 13.7624
1 47.1969 37.1265 13.7864
1 47.1748 38.7915 16.2157
1 45.7216 36.2994 16.0689
1 48.7223 34.61 13.7685
1 50.1421 37.2126 13.8357
1 50.0721 38.8437 16.271
1 48.7124 36.2106 16.0895
1 35.7576 42.1522 14.0184
1 35.4453 43.6927 16.2745
1 37.3001 39.6607 13.9409
1 38.5038 42.1182 13.9774
1 38.4196 43.7571 16.2221
1 37.1008 41.2708 16.3115
1 40.027 39.5923 13.9319
1 41.385 42.1368 13.9168
1 41.2623 43.7534 16.2399
1 39.8946 41.2925 16.239
1 42.8264 39.5487 13.9003
1 44.2111 42.1278 13.9154
1 44.251 43.7649 16.2619
1 42.8813 41.2696 16.2372
1 45.6862 39.6376 13.8703
1 47.123 42.1767 13.8376
1 47.2453 43.7679 16.2529
1 45.7536 41.313 16.2384
1 48.5884 39.6463 13.9659
1 49.9065 42.2323 13.9825
1 50.1121 43.916 16.2909
1 48.6167 41.284 16.2952
1 32.7233 47.0666 14.0893
1 32.6822 48.6285 16.3611
1 34.1409 44.5649 14.0027
1 35.4118 47.0688 14.0701
1 35.3216 48.7099 16.4144
1 34.0218 46.0788 16.4537
1 36.867 44.5124 13.9438
1 38.3716 46.9765 13.9591
1 38.219 48.7678 16.3581
1 36.907 46.2422 16.2702
1 39.8521 44.585 13.9419
1 41.2408 47.079 13.9741
1 41.184 48.7343 16.2924
1 39.8159 46.2254 16.2873
1 42.8011 44.6754 13.897
1 44.1267 47.1977 14.0155
1 44.1325 48.7016 16.3652
1 42.8024 46.2267 16.3653
1 45.6151 44.6403 13.9881
1 47.0093 47.1068 13.9419
1 46.9614 48.7753 16.3685
1 45.6688 46.2392 16.318
1 48.507 44.7043 13.9785
1 49.9036 47.3208 14.0217
1 49.8959 48.9262 16.4235
1 48.5456 46.3548 16.3816
1 33.7639 49.5427 13.9911
1 36.7411 49.5046 14.0584
1 39.5936 49.4339 13.9022
1 42.5268 49.5225 14.0302
1 45.5127 49.7348 14.0686
1 48.3114 49.6883 14.0496
1 44.6205 33.6865 20.8296
1 45.1507 32.3627 18.4253
1 47.4248 33.5549 20.7213
1 47.7826 32.2697 18.2297
1 50.3196 33.671 20.9603
1 38.6334 37.2231 18.5472
1 38.4929 38.6605 20.8732
1 41.5727 36.9153 18.5563
1 41.4766 38.5896 20.92
1 40.0555 36.3895 20.7554
1 43.3572 34.5397 18.3983
1 44.4039 37.0276 18.4401
1 44.3637 38.5901 20.8432
1 42.962 35.9983 20.8077
1 46.1407 34.6663 18.3889
1 47.4412 37.1819 18.3573
1 47.2392 38.6927 20.7616
1 45.8164 36.169 20.8517
1 48.9895 34.7424 18.5291
1 50.1962 37.2207 18.5355
1 50.2124 38.7576 20.8999
1 48.6737 36.1795 20.9115
1 35.8025 42.0348 18.5505
1 35.6755 43.6371 20.8739
1 37.1769 39.5857 18.553
1 38.4951 42.016 18.6396
1 38.5216 43.62 20.9494
1 37.0521 41.0829 20.8721
1 40.0644 39.497 18.5144
1 41.4104 42.0904 18.5102
1 41.4299 43.7452 20.9857
1 40.0494 41.1514 20.892
1 42.8869 39.622 18.5965
1 44.3414 42.106 18.6782
1 44.3484 43.7136 20.9847
1 42.9159 41.1543 20.921
1 45.8079 39.5809 18.4709
1 47.2144 42.186 18.6065
1 47.1318 43.7624 21.0434
1 45.7995 41.1526 20.8152
1 48.6448 39.7303 18.5264
1 50.0234 42.2431 18.6192
1 49.9686 43.8751 21.0544
1 48.6876 41.2593 20.8583
1 32.8534 46.9943 18.6547
1 32.6398 48.5156 21.1252
1 34.2158 44.535 18.7144
1 35.4924 46.8918 18.6922
1 35.3561 48.6007 21.0578
1 34.0311 45.9604 20.9785
1 36.9913 44.5494 18.5308
1 38.4887 47.0329 18.604
1 38.2452 48.6388 20.9708
1 36.9823 46.1114 20.981
1 39.8113 44.5458 18.587
1 41.3702 47.0218 18.7619
1 41.2275 48.702 20.965
1 39.9266 46.2747 20.9161
1 42.7968 44.5269 18.6585
1 44.1831 47.0469 18.6445
1 44.0734 48.8882 21.1205
1 42.8431 46.2006 20.9779
1 45.6458 44.6324 18.6208
1 47.0411 47.1089 18.757
1 46.9058 48.7403 21.1396
1 45.6084 46.2549 21.0028
1 48.4694 44.68 18.6622
1 49.9351 47.1248 18.829
1 49.9064 48.8346 21.1565
1 48.5145 46.2845 21.1327
1 33.9066 49.5132 18.7817
1 36.7332 49.4774 18.716
1 39.7373 49.4532 18.6699
1 42.6482 49.6596 18.7131
1 45.552 49.5666 18.7499
1 48.41 49.5826 18.7822
1 44.8133 33.5542 25.5073
1 45.0651 32.2672 23.1393
1 47.4869 33.6142 25.5241
1 47.7168 32.2158 23.1103
1 50.3182 33.7771 25.6064
1 38.8353 37.1558 23.1462
1 38.5876 38.7094 25.5928
1 41.5233 36.8203 23.2047
1 41.4172 38.5066 25.5881
1 40.0487 36.2423 25.5331
1 43.395 34.47 23.2078
1 44.3675 37.0059 23.2888
1 44.3983 38.6871 25.5976
1 43.0351 36.0698 25.5153
1 46.1232 34.6243 23.1273
1 47.2766 37.1721 23.2586
1 47.1705 38.7969 25.5807
1 45.8485 36.0774 25.6382
1 48.8978 34.6175 23.1684
1 50.244 37.069 23.2446
1 50.0095 38.8057 25.6346
1 48.7386 36.1717 25.6077
1 35.8278 42.06 23.1656
1 35.5976 43.5515 25.6409
1 37.305 39.582 23.1566
1 38.5985 42.0455 23.325
1 38.4781 43.6121 25.6794
1 37.2027 41.1496 25.546
1 40.0636 39.4984 23.2132
1 41.4741 42.0535 23.2484
1 41.4129 43.669 25.6225
1 40.0369 41.0941 25.6313
1 42.8835 39.5123 23.229
1 44.2922 42.1553 23.2404
1 44.3517 43.6207 25.6522
1 42.88 41.0633 25.5576
1 45.7471 39.5727 23.1973
1 47.2058 41.9764 23.1817
1 47.1363 43.7191 25.6192
1 45.7379 41.2053 25.6191
1 48.6853 39.5705 23.2297
1 50.0405 42.122 23.4043
1 50.0877 43.775 25.904
1 48.5795 41.3382 25.653
1 32.8868 46.9129 23.2951
1 32.8469 48.3478 25.6957
1 34.418 44.492 23.21
1 35.6087 46.9859 23.2588
1 35.5624 48.5306 25.6295
1 34.2061 45.9712 25.6635
1 37.1537 44.4708 23.3304
1 38.5242 46.9558 23.3927
1 38.4127 48.6125 25.703
1 37.0495 46.1108 25.6239
1 40.055 44.4535 23.3322
1 41.3154 47.0203 23.3286
1 41.3095 48.682 25.7324
1 39.9028 46.1506 25.6694
1 42.9154 44.5886 23.3873
1 44.2059 47.168 23.4011
1 44.185 48.8111 25.6832
1 42.873 46.1759 25.7063
1 45.6738 44.6021 23.342
1 47.0156 47.2602 23.4474
1 47.0734 48.7301 25.7754
1 45.6555 46.2166 25.6977
1 48.5514 44.6077 23.4301
1 49.9275 47.0819 23.4601
1 49.8887 48.6893 25.742
1 48.5384 46.2024 25.7911
1 33.9849 49.4701 23.3466
1 37.0115 49.5059 23.3697
1 39.8194 49.5302 23.3739
1 42.7182 49.622 23.4428
1 45.5931 49.6753 23.4504
1 48.5384 49.6645 23.4195
1 45.1091 32.3044 27.9197
1 47.6757 32.2204 27.875
1 38.8459 37.0679 27.8492
1 41.5336 36.8521 27.8715
1 43.4177 34.5416 27.7493
1 44.4726 36.9301 27.8842
1 46.2228 34.5866 28.0415
1 47.4142 37.0527 28.008
1 49.0296 34.5974 27.9529
1 50.2256 37.1628 28.0119
1 35.8254 42.0436 27.9982
1 37.2664 39.5107 27.983
1 38.6297 41.8507 27.986
1 40.1672 39.4005 27.9535
1 41.5683 41.9372 27.8835
1 43.025 39.4189 27.9492
1 44.3346 41.9977 27.9196
1 45.8622 39.5843 27.9367
1 47.2178 42.2031 27.9797
1 48.6613 39.6651 27.9446
1 50.0995 42.1334 28.1426
1 32.9397 46.9175 28.0008
1 34.3478 44.4627 27.9803
1 35.576 46.9005 27.9829
1 37.1148 44.4792 28.0018
1 38.5326 46.9905 28.0741
1 40.0276 44.4196 27.9764
1 41.3451 46.9271 27.9811
1 42.8926 44.5366 27.981
1 44.1604 47.1231 28.2202
1 45.6798 44.5832 28.0509
1 46.9844 47.0431 28.1184
1 48.5458 44.5465 28.1873
1 49.9139 47.1263 28.1003
1 34.066 49.4061 28.0594
1 36.8912 49.3667 28.1348
1 39.7939 49.4314 28.005
1 42.7224 49.4891 28.131
1 45.6375 49.5636 28.1699
1 48.4602 49.5841 28.1825
1 44.5625 33.8256 30.1952
1 47.4103 33.6192 30.3917
1 50.2265 33.74 30.3519
1 38.6426 38.6839 30.1412
1 41.5763 38.5999 30.2325
1 40.1234 36.3852 30.1344
1 44.4126 38.6645 30.2523
1 43.1046 36.0932 30.3037
1 47.2074 38.8172 30.2784
1 45.8718 36.2364 30.3121
1 50.0609 38.7561 30.2944
1 48.7278 36.2314 30.4132
1 35.6341 43.5114 30.3465
1 38.5227 43.5852 30.264
1 37.0888 41.1432 30.3413
1 41.5008 43.5752 30.3141
1 39.9908 41.1379 30.3494
1 44.3664 43.6446 30.3461
1 42.9383 41.1765 30.3519
1 47.2015 43.6693 30.4893
1 45.7743 41.2293 30.3181
1 50.0772 43.8407 30.4828
1 48.636 41.2809 30.4423
1 32.7795 48.3072 30.3674
1 35.4774 48.4158 30.4641
1 34.1457 45.8953 30.4229
1 38.3884 48.5339 30.4152
1 37.0478 46.0785 30.2593
1 41.2156 48.5814 30.3869
1 39.9316 46.0633 30.4676
1 44.0981 48.7053 30.4935
1 42.7604 46.0635 30.457
1 47.0021 48.6862 30.5733
1 45.6526 46.2463 30.5425
1 49.8404 48.7257 30.5181
1 48.4629 46.2756 30.4798
1 44.464 33.9142 35.2123
1 47.6025 32.3138 32.7749
1 47.3804 33.7803 35.0897
1 50.2962 32.3313 32.6984
1 50.148 33.6228 35.086
1 38.9381 37.1528 32.5965
1 38.6496 38.7808 35.1029
1 41.6683 36.9402 32.5889
1 41.5026 38.6774 35.0258
1 40.0523 36.4562 34.8959
1 43.2289 34.6002 32.8138
1 44.4575 36.9866 32.7353
1 44.4115 38.8047 35.0206
1 42.9551 36.1922 35.081
1 45.8685 34.5086 32.678
1 47.2668 37.124 32.7107
1 47.1989 38.6139 35.108
1 45.798 36.1731 35.0303
1 48.7496 34.6658 32.8171
1 50.1425 37.1631 32.7905
1 49.9846 38.7754 35.1945
1 48.7198 36.227 35.1692
1 35.7982 41.8352 32.6229
1 35.5986 43.5842 34.9525
1 37.4683 39.5568 32.6316
1 38.6462 41.9908 32.7694
1 38.4636 43.6027 35.0733
1 37.13 41.1874 34.9803
1 40.1169 39.447 32.7007
1 41.4633 41.9832 32.6687
1 41.3914 43.677 35.1648
1 40.038 41.2222 35.0092
1 42.9391 39.4592 32.7468
1 44.3845 41.94 32.7566
1 44.3183 43.6752 35.1652
1 42.9097 41.2031 35.1448
1 45.7701 39.568 32.6903
1 47.1206 42.0743 32.7777
1 47.0944 43.7283 35.1977
1 45.7619 41.1896 35.096
1 48.601 39.6147 32.7932
1 49.957 42.0548 32.9065
1 49.9172 43.7492 35.3498
1 48.6338 41.3006 35.2421
1 32.8823 46.8532 32.729
1 32.8675 48.4747 35.1104
1 34.2855 44.2682 32.7119
1 35.5756 46.8044 32.6462
1 35.5433 48.5147 35.0857
1 34.2247 45.9231 35.0889
1 37.0548 44.3604 32.6492
1 38.4644 46.8755 32.7345
1 38.3967 48.5117 35.1478
1 37.0309 46.042 35.0914
1 40.0143 44.5063 32.7065
1 41.3766 46.9802 32.7557
1 41.245 48.5782 35.2839
1 39.8828 46.074 35.1582
1 42.8087 44.3569 32.6721
1 44.1605 46.9699 32.8253
1 44.1423 48.5891 35.3053
1 42.6757 46.0566 35.1578
1 45.6759 44.5683 32.8384
1 46.9943 47.008 32.9167
1 46.9953 48.6893 35.2432
1 45.5604 46.1467 35.215
1 48.6125 44.5728 32.8977
1 49.8217 47.189 32.9301
1 49.8803 48.7531 35.3473
1 48.4086 46.314 35.2486
1 34.043 49.3128 32.7658
1 36.9256 49.4501 32.8613
1 39.7485 49.3698 32.8813
1 42.6843 49.4124 32.9034
1 45.4791 49.5028 32.9148
1 48.3773 49.6441 32.918
1 44.4502 33.9657 40.0783
1 47.269 32.4782 37.5207
1 47.1749 33.7103 40.0129
1 49.8759 32.4109 37.4805
1 49.9602 33.6952 39.9536
1 38.7038 37.2034 37.3296
1 38.5869 38.6838 39.8019
1 41.3846 37.0583 37.4055
1 41.4334 38.763 39.9065
1 40.1157 36.504 39.743
1 43.0264 34.7532 37.6032
1 44.2716 37.1104 37.4378
1 44.2587 38.7892 39.9097
1 42.8341 36.3159 39.9206
1 45.7301 34.6702 37.56
1 47.1543 37.1127 37.5962
1 47.1771 38.8915 39.9006
1 45.7864 36.3699 39.826
1 48.5462 34.7383 37.5296
1 49.996 37.2076 37.5646
1 49.9416 38.8233 39.9883
1 48.5867 36.3442 40.0085
1 35.7896 41.97 37.4008
1 35.5607 43.4457 39.8202
1 37.2263 39.5813 37.4825
1 38.534 41.9238 37.4308
1 38.3218 43.5812 39.9295
1 37.0096 41.0844 39.7561
1 40.0738 39.5465 37.5202
1 41.3502 42.0204 37.5768
1 41.2359 43.7597 39.937
1 39.8548 41.1125 39.8679
1 42.843 39.6223 37.4872
1 44.2904 42.1715 37.6108
1 44.1561 43.7351 40.0203
1 42.7594 41.3322 39.9269
1 45.6582 39.5902 37.4748
1 47.0962 42.118 37.4663
1 46.9911 43.7626 40.007
1 45.6414 41.2357 40.0137
1 48.5528 39.6701 37.5601
1 49.8518 42.1643 37.6915
1 49.7783 43.8777 40.0935
1 48.4952 41.3805 39.9452
1 33.0351 46.9685 37.4496
1 32.8578 48.4175 39.8234
1 34.3703 44.4751 37.436
1 35.6211 46.8931 37.4769
1 35.5122 48.573 39.9033
1 34.1148 45.9841 39.8207
1 37.0689 44.465 37.4416
1 38.4658 46.8489 37.5084
1 38.3325 48.6384 39.9927
1 36.877 46.0701 39.9194
1 39.9337 44.4185 37.4415
1 41.3024 46.8837 37.6639
1 41.251 48.6693 39.9656
1 39.733 46.191 39.8946
1 42.8243 44.4702 37.6336
1 44.187 46.9366 37.6678
1 44.1847 48.7766 40.1632
1 42.5942 46.2374 40.0296
1 45.7161 44.6823 37.7188
1 47.0364 47.1133 37.6679
1 46.9201 48.7721 40.1802
1 45.4373 46.2307 40.1254
1 48.494 44.6754 37.6322
1 49.8815 47.1824 37.6889
1 49.7974 48.8112 40.1598
1 48.2412 46.2514 40.1127
1 34.1001 49.4265 37.5168
1 36.896 49.313 37.5332
1 39.7032 49.2313 37.6263
1 42.7055 49.4185 37.6325
1 45.5317 49.547 37.7665
1 48.3396 49.6729 37.6967
1 44.7448 32.6002 42.4859
1 47.3682 32.5652 42.5475
1 38.5694 37.3166 42.0174
1 41.2263 37.0186 42.3179
1 43.078 34.7796 42.3048
1 44.2655 37.2163 42.261
1 45.8581 34.9222 42.3513
1 47.1253 37.3853 42.379
1 48.7661 34.8509 42.288
1 49.9835 37.324 42.4674
1 35.7706 42.1437 42.2618
1 37.1341 39.6812 42.1554
1 38.462 42.1378 42.2589
1 39.8747 39.5933 42.2632
1 41.2959 42.0195 42.2377
1 42.6696 39.5611 42.3085
1 44.0793 42.022 42.3969
1 45.5333 39.7142 42.3567
1 46.9988 42.2137 42.3762
1 48.4281 39.8455 42.3144
1 49.8527 42.1531 42.3906
1 32.8091 47.0117 42.2168
1 34.2029 44.5854 42.2019
1 35.4954 46.9743 42.2601
1 36.8906 44.5552 42.3116
1 38.2986 46.9639 42.3411
1 39.8339 44.6383 42.3244
1 41.2107 47.1233 42.3391
1 42.583 44.538 42.325
1 44.0601 47.0631 42.5063
1 45.5206 44.4915 42.3704
1 46.8443 46.9982 42.541
1 48.3397 44.6802 42.5423
1 49.7361 47.2385 42.5273
1 33.9471 49.4911 42.2406
1 36.9124 49.5136 42.3458
1 39.7247 49.4958 42.3963
1 42.6464 49.5248 42.4446
1 45.4369 49.5734 42.5904
1 48.2988 49.7117 42.6224
1 44.097 33.8971 44.7147
1 46.9196 33.8383 44.8377
1 49.797 33.9146 44.8024
1 38.2859 38.8482 44.5435
1 41.1817 38.7667 44.6882
1 39.7045 36.6051 44.6513
1 43.9771 38.8747 44.7173
1 42.6831 36.3326 44.6317
1 46.9537 39.0051 44.7471
1 45.5023 36.3874 44.7482
1 49.7822 38.9411 44.8569
1 48.3164 36.4017 44.7975
1 35.2809 43.7223 44.6216
1 38.1676 43.7325 44.6418
1 36.8219 41.3644 44.73
1 41.1091 43.7413 44.6653
1 39.6137 41.2224 44.6698
1 43.995 43.8646 44.6951
1 42.5439 41.3008 44.8249
1 46.8163 43.8943 44.8234
1 45.3815 41.3304 44.8187
1 49.704 43.9092 44.8548
1 48.3415 41.4685 44.7769
1 32.7457 48.5638 44.6752
1 35.4428 48.715 44.5573
1 33.914 46.1307 44.5799
1 38.3715 48.6126 44.7557
1 36.7835 46.2438 44.7067
1 41.1011 48.7882 44.7358
1 39.7054 46.1382 44.7277
1 43.9804 48.8278 44.8908
1 42.4874 46.2971 44.7453
1 46.8645 48.8672 44.876
1 45.3877 46.3057 44.8751
1 49.7576 48.828 44.9578
1 48.3281 46.4298 44.9883
1 44.0067 34.0348 49.5504
1 44.3294 32.6472 47.1625
1 46.8167 33.9799 49.5531
1 46.9627 32.5154 47.1845
1 49.6887 34.0362 49.6683
1 38.3641 37.3489 47.0532
1 38.041 38.8584 49.4547
1 41.1127 37.1237 47.049
1 40.9513 38.9264 49.4774
1 39.5218 36.5703 49.3547
1 42.6705 34.8917 47.1014
1 44.0545 37.2423 47.1727
1 43.8749 38.9098 49.5387
1 42.3842 36.4034 49.4151
1 45.5509 34.8984 47.2748
1 46.8257 37.3445 47.1429
1 46.7719 38.8669 49.5316
1 45.3545 36.4272 49.5986
1 48.357 34.9818 47.1942
1 49.7189 37.3257 47.2531
1 49.6301 39.0795 49.5984
1 48.2612 36.5325 49.5815
1 35.4577 42.2261 47.166
1 35.3155 43.8253 49.4692
1 36.9632 39.7693 47.0442
1 38.2501 42.1679 47.0753
1 38.0643 43.8864 49.4576
1 36.6284 41.3618 49.4512
1 39.6991 39.6621 47.0219
1 41.0363 42.1011 47.0653
1 40.9267 43.8482 49.4019
1 39.4667 41.3548 49.5087
1 42.519 39.6676 47.1692
1 43.9801 42.2133 47.2031
1 43.8829 43.8809 49.5762
1 42.4207 41.438 49.4851
1 45.3082 39.8166 47.1703
1 46.758 42.249 47.2445
1 46.7617 43.9581 49.6123
1 45.2829 41.3774 49.6024
1 48.1833 39.8421 47.1862
1 49.5653 42.2364 47.3286
1 49.6619 44.0627 49.7723
1 48.1738 41.4869 49.6842
1 32.6504 47.1086 46.8582
1 32.6019 48.7633 49.3114
1 34.1443 44.6716 46.9952
1 35.4058 47.1938 47.0827
1 35.1814 48.8658 49.3923
1 33.8349 46.2828 49.3052
1 36.8178 44.6958 47.0731
1 38.2157 47.1051 47.0956
1 38.0549 48.8098 49.5806
1 36.6654 46.2965 49.494
1 39.6296 44.5937 47.0638
1 41.0136 47.0979 47.0881
1 41.0397 48.7112 49.5581
1 39.5026 46.3838 49.4831
1 42.4833 44.5969 47.1568
1 43.86 47.2406 47.0992
1 43.8238 48.8904 49.6869
1 42.4121 46.362 49.5497
1 45.3751 44.6249 47.1557
1 46.734 47.2599 47.259
1 46.7354 48.9425 49.6691
1 45.2517 46.3886 49.5679
1 48.1506 44.7677 47.3518
1 49.6886 47.2261 47.4031
1 49.5463 49.0179 49.7695
1 48.1258 46.4844 49.775
1 33.8246 49.6139 46.9991
1 36.8075 49.5136 47.1109
1 39.5838 49.5723 47.2011
1 42.4457 49.5966 47.2789
1 45.3072 49.6787 47.2465
1 48.184 49.6011 47.3315
1 43.783 34.1598 54.3057
1 47.0279 32.621 51.9288
1 46.629 33.9751 54.3285
1 49.5642 32.6706 52.0722
1 49.4588 34.077 54.3754
1 38.1545 37.5005 51.8614
1 38.0118 39.0489 54.2661
1 40.8383 37.1896 51.8412
1 40.8433 39.0679 54.2438
1 39.5094 36.7982 54.2999
1 42.5199 34.9169 51.901
1 43.6309 37.3257 51.8352
1 43.6085 39.0479 54.166
1 42.2154 36.4993 54.2604
1 45.2428 34.7971 51.9635
1 46.6173 37.3485 51.9684
1 46.5592 39.1413 54.2512
1 45.0892 36.5708 54.1686
1 48.1457 34.9876 51.9647
1 49.5195 37.429 51.9615
1 49.5069 39.1559 54.3755
1 47.9561 36.6598 54.3069
1 35.34 42.4108 51.9168
1 35.0332 44.0942 54.2397
1 36.7531 39.8808 51.838
1 38.0846 42.254 51.8939
1 37.869 43.9735 54.2575
1 36.4317 41.4965 54.2016
1 39.584 39.692 51.838
1 40.938 42.3673 51.8599
1 40.6927 43.9498 54.2111
1 39.3474 41.5041 54.2554
1 42.3085 39.8536 51.8485
1 43.7485 42.3019 51.9057
1 43.6371 44.1022 54.2541
1 42.2308 41.5614 54.3865
1 45.2435 39.881 51.9195
1 46.5983 42.3621 52.0159
1 46.5552 44.0929 54.3908
1 45.1282 41.6254 54.3354
1 48.1304 39.8553 51.9977
1 49.5183 42.4011 52.0671
1 49.4525 44.1089 54.4116
1 48.0572 41.6357 54.3599
1 32.5999 47.2964 51.707
1 32.5968 48.9473 54.0907
1 33.8733 44.8737 51.6982
1 35.1703 47.2762 51.8122
1 35.169 48.9564 54.1757
1 33.6386 46.4772 54.1646
1 36.5726 44.7163 51.8715
1 37.9642 47.2057 51.9245
1 37.9421 48.9623 54.2626
1 36.4634 46.476 54.276
1 39.4676 44.7549 51.7739
1 40.8164 47.2112 51.9275
1 40.7295 48.9579 54.3384
1 39.3881 46.4423 54.3224
1 42.3137 44.7915 51.7678
1 43.7213 47.3239 51.9648
1 43.6117 48.9826 54.4243
1 42.2422 46.5122 54.2887
1 45.2043 44.7738 51.9238
1 46.6014 47.3671 52.0304
1 46.5073 48.9865 54.5276
1 45.1635 46.4825 54.4109
1 48.0779 44.8511 52.0877
1 49.4851 47.343 52.0717
1 49.5187 48.9936 54.6133
1 48.0237 46.569 54.5116
1 33.6749 49.8357 51.6917
1 36.6521 49.8179 51.8641
1 39.4007 49.7972 51.997
1 42.2806 49.6182 51.9992
1 45.2254 49.731 52.2125
1 48.1079 49.8322 52.1827
1 43.8981 34.3038 58.988
1 43.9383 32.9122 56.7873
1 46.6582 34.1765 59.0748
1 46.5201 32.6856 56.7112
1 49.4597 34.202 59.1139
1 38.1385 37.5978 56.6874
1 37.8963 39.1238 59.0388
1 40.8351 37.4652 56.6054
1 40.784 39.1675 59.0984
1 39.4354 36.8363 59.0259
1 42.2847 35.0454 56.7018
1 43.7417 37.5191 56.5805
1 43.7 39.2248 58.9681
1 42.272 36.693 59.0669
1 45.1924 35.1353 56.5986
1 46.6526 37.5855 56.7888
1 46.5638 39.1698 59.0349
1 45.106 36.6877 59.0357
1 48.0187 35.0718 56.663
1 49.398 37.4857 56.6847
1 49.3609 39.1853 59.0567
1 48.0267 36.6246 59.0522
1 35.2394 42.5287 56.5768
1 34.9481 44.0827 59.0354
1 36.6573 40.0636 56.6347
1 37.8942 42.4584 56.7456
1 37.78 44.1315 59.1006
1 36.4497 41.6241 59.0313
1 39.4227 39.9037 56.639
1 40.692 42.4332 56.6582
1 40.6449 44.1143 59.0886
1 39.2671 41.6322 59.0402
1 42.2115 39.8858 56.6365
1 43.6404 42.4711 56.612
1 43.5298 44.1088 59.019
1 42.1485 41.6536 58.9546
1 45.1037 40.0098 56.5342
1 46.5177 42.4813 56.7364
1 46.3892 44.2665 59.0882
1 45.0633 41.7209 59.0497
1 48.0106 40.0532 56.6928
1 49.426 42.4996 56.726
1 49.4107 44.3387 59.1812
1 47.884 41.7894 59.0684
1 32.4558 47.5877 56.5798
1 32.3402 49.002 59.0012
1 33.7903 44.9634 56.599
1 35.0529 47.5061 56.6745
1 34.9827 49.0824 59.0153
1 33.5745 46.6227 58.9662
1 36.4831 44.8881 56.6867
1 37.8792 47.4219 56.6632
1 37.7979 49.0637 59.1048
1 36.4176 46.5344 59.0418
1 39.3541 44.9504 56.6146
1 40.7978 47.4292 56.6973
1 40.7366 49.092 59.0239
1 39.2198 46.6192 58.9821
1 42.1381 44.8659 56.563
1 43.5406 47.3192 56.7893
1 43.5636 49.1035 59.1593
1 42.0455 46.549 59.1269
1 45.0462 44.9668 56.787
1 46.3928 47.4135 56.8453
1 46.4505 49.113 59.1752
1 44.9601 46.6112 59.1651
1 47.8917 44.9435 56.8115
1 49.3286 47.3868 56.8664
1 49.3351 49.1827 59.2556
1 47.9009 46.6751 59.2089
1 33.6315 50.0182 56.5342
1 36.4321 49.949 56.6889
1 39.2513 49.9082 56.7435
1 42.1159 49.8847 56.7316
1 44.9292 49.816 56.885
1 47.9006 49.9342 56.8991
1 44.0104 34.4632 63.7503
1 47.1128 32.8601 61.4181
1 46.7561 34.3256 63.833
1 49.6548 32.8452 61.4742
1 49.5795 34.0903 64.0101
1 38.1691 37.7501 61.3574
1 37.9269 39.188 63.7697
1 40.8091 37.3888 61.4319
1 40.8377 39.1134 63.7728
1 39.324 36.8907 63.8736
1 42.5614 35.1496 61.3524
1 43.778 37.5524 61.433
1 43.6708 39.23 63.757
1 42.2208 36.589 63.7285
1 45.3818 35.0671 61.4276
1 46.6938 37.6948 61.3841
1 46.649 39.2893 63.7344
1 45.3458 36.7866 63.7059
1 48.1808 35.2019 61.5605
1 49.6121 37.7188 61.4641
1 49.4968 39.3314 63.8538
1 48.153 36.8067 63.8289
1 35.1394 42.5656 61.304
1 34.9432 44.1603 63.7143
1 36.6085 40.0695 61.4287
1 37.9368 42.4752 61.3865
1 37.8848 44.2238 63.8252
1 36.4693 41.6973 63.6577
1 39.3827 40.0404 61.5104
1 40.809 42.5262 61.4048
1 40.7526 44.134 63.8223
1 39.3513 41.6076 63.8256
1 42.2535 39.9948 61.4113
1 43.7639 42.5414 61.3829
1 43.6916 44.2465 63.8516
1 42.2684 41.7054 63.738
1 45.1797 40.0777 61.3981
1 46.5377 42.6313 61.3854
1 46.5351 44.3016 63.899
1 45.1119 41.7888 63.8129
1 48.0604 40.1337 61.338
1 49.3593 42.6155 61.4834
1 49.3559 44.2993 63.8548
1 47.9084 41.8105 63.8342
1 32.3328 47.6948 61.4052
1 32.2336 49.0748 63.7694
1 33.799 45.1194 61.3678
1 35.0186 47.5944 61.3691
1 34.911 49.269 63.7772
1 33.6252 46.7297 63.7965
1 36.5166 44.9326 61.4948
1 37.8306 47.5445 61.4868
1 37.8017 49.3224 63.9042
1 36.4159 46.7577 63.8026
1 39.3453 45.1351 61.459
1 40.7032 47.5066 61.4223
1 40.6415 49.1749 63.8791
1 39.1813 46.657 63.9303
1 42.2133 45.0118 61.4596
1 43.6768 47.46 61.447
1 43.5714 49.1396 63.9148
1 42.124 46.7295 63.7648
1 45.0723 45.0646 61.571
1 46.5048 47.4754 61.5741
1 46.4147 49.2137 63.9418
1 45.0166 46.7147 63.962
1 47.999 45.0932 61.6111
1 49.3883 47.6114 61.58
1 49.3471 49.3102 63.9569
1 48.0024 46.9018 63.9965
1 33.5339 50.1053 61.4324
1 36.3809 50.0445 61.4415
1 39.2276 49.962 61.5439
1 42.1942 49.9451 61.4885
1 45.1038 49.9057 61.5936
1 47.8876 50.0078 61.6506
1 44.0274 34.2482 68.3631
1 47.1856 32.8523 66.0937
1 46.7653 34.3288 68.4819
1 49.725 32.7422 66.4123
1 49.5787 34.2368 68.5376
1 37.9939 37.6465 66.2064
1 37.9828 39.109 68.5662
1 40.825 37.4489 66.1035
1 40.9309 39.1194 68.4979
1 39.5194 36.8555 68.4502
1 42.5619 35.1535 66.0654
1 43.7316 37.4967 65.9469
1 43.7892 39.2368 68.4881
1 42.474 36.7019 68.3913
1 45.2457 35.1564 66.1317
1 46.705 37.577 66.1745
1 46.6404 39.3571 68.5056
1 45.2819 36.7825 68.5292
1 48.1773 35.1981 66.2058
1 49.5596 37.713 66.1742
1 49.5778 39.3737 68.566
1 48.1391 36.8595 68.5216
1 35.3322 42.6099 66.0355
1 34.9726 44.0861 68.4283
1 36.7222 40.1764 66.1778
1 38.0466 42.5112 66.1392
1 37.7941 43.9986 68.5432
1 36.3719 41.6173 68.5888
1 39.4468 39.9011 66.1744
1 40.8561 42.5653 66.1524
1 40.6451 44.0964 68.5711
1 39.2565 41.6054 68.5228
1 42.268 40.0234 66.0444
1 43.6771 42.503 66.1568
1 43.6216 44.1815 68.548
1 42.2429 41.6606 68.4213
1 45.1817 40.1027 66.0856
1 46.5794 42.6073 66.2061
1 46.5255 44.3248 68.5765
1 45.0972 41.8004 68.5497
1 48.0912 40.0979 66.1395
1 49.4055 42.6851 66.2561
1 49.4227 44.3694 68.5813
1 47.9795 41.8475 68.4568
1 32.4826 47.4976 66.1437
1 32.2238 49.0601 68.4565
1 33.8187 45.0429 66.0398
1 35.1198 47.5378 66.1862
1 34.9163 49.2423 68.4531
1 33.6167 46.5464 68.4224
1 36.5859 45.0364 66.1718
1 37.9442 47.591 66.289
1 37.8021 49.1904 68.6099
1 36.4266 46.6972 68.5283
1 39.3164 45.0726 66.2366
1 40.7828 47.582 66.1802
1 40.7073 49.2069 68.6528
1 39.2991 46.649 68.5941
1 42.2062 44.9928 66.1647
1 43.6119 47.5707 66.2806
1 43.5559 49.2448 68.6842
1 42.1646 46.6625 68.5042
1 45.0737 45.0704 66.2393
1 46.5261 47.6627 66.3902
1 46.5273 49.3514 68.767
1 45.0643 46.7605 68.5165
1 47.9936 45.0573 66.2772
1 49.3415 47.6281 66.3662
1 49.3632 49.4207 68.7441
1 47.9295 46.8068 68.6424
1 33.4492 50.042 66.1637
1 36.4121 50.0473 66.1859
1 39.2841 50.0596 66.3601
1 42.1566 50.0535 66.1881
1 45.0047 50.0419 66.3627
1 47.9037 50.0878 66.4027
1 43.9698 34.3935 73.079
1 44.6061 32.9586 70.7836
1 46.7533 34.0484 73.096
1 47.293 32.8987 70.7129
1 49.5842 34.1591 73.1959
1 38.1649 37.6723 70.7931
1 37.9512 39.1991 73.2613
1 40.9335 37.3719 70.7424
1 40.935 39.1762 73.1214
1 39.5388 36.9992 73.2476
1 42.7803 35.0535 70.7496
1 43.7847 37.7139 70.7977
1 43.7836 39.307 73.1603
1 42.2705 36.6661 73.1328
1 45.5882 35.2872 70.8281
1 46.7307 37.7941 70.8947
1 46.6454 39.4515 73.2007
1 45.1913 36.7931 73.2241
1 48.422 35.2535 70.9397
1 49.6384 37.8064 70.9275
1 49.5757 39.3975 73.2105
1 48.0663 36.7941 73.2294
1 35.2526 42.6076 70.8621
1 35.15 44.206 73.148
1 36.7014 40.0073 70.8355
1 38.0483 42.4156 70.9032
1 37.9038 44.0889 73.0849
1 36.484 41.6475 73.1401
1 39.4697 40.0084 70.8797
1 40.8431 42.4957 70.7823
1 40.8504 44.1096 73.2112
1 39.4236 41.6329 73.186
1 42.3238 40.1226 70.8767
1 43.8185 42.7497 70.9095
1 43.788 44.3096 73.2431
1 42.3371 41.6902 73.3342
1 45.1756 40.267 70.8516
1 46.698 42.7624 70.797
1 46.6791 44.3485 73.2977
1 45.2298 41.9278 73.1768
1 48.0913 40.254 70.8895
1 49.5108 42.7478 70.8786
1 49.5367 44.3003 73.1925
1 48.1088 41.8832 73.2168
1 32.3522 47.5084 70.7672
1 32.2804 48.9918 73.2318
1 33.8046 45.1138 70.7745
1 34.9605 47.6461 70.8339
1 34.9739 49.0799 73.2334
1 33.5989 46.5447 73.236
1 36.5247 45.0252 70.7984
1 37.8692 47.542 70.855
1 37.8509 49.1565 73.2455
1 36.4272 46.6963 73.173
1 39.4292 44.9765 70.8723
1 40.7875 47.5386 70.929
1 40.6631 49.2381 73.2843
1 39.2727 46.6364 73.1432
1 42.2587 45.1043 70.9272
1 43.6973 47.4998 70.9873
1 43.6315 49.2142 73.3778
1 42.1693 46.7194 73.3323
1 45.159 45.0938 70.9835
1 46.5118 47.6015 70.9547
1 46.5484 49.2505 73.3512
1 45.2233 46.8245 73.3507
1 48.0953 45.2199 71.0072
1 49.4273 47.6469 70.9759
1 49.4556 49.342 73.4469
1 47.997 46.8507 73.3127
1 33.4257 49.9933 70.9302
1 36.3991 50.0163 70.9104
1 39.2401 50.1012 70.9117
1 42.0964 49.9747 71.0419
1 45.0207 50.0911 71.0944
1 47.9559 50.1191 71.151
1 43.958 34.2642 77.8984
1 44.3291 32.8781 75.563
1 46.7569 34.1481 77.721
1 46.9268 32.6653 75.3704
1 49.6497 34.2433 77.8978
1 38.1989 37.6129 75.6362
1 37.9321 39.1118 77.7949
1 41.0226 37.5375 75.4682
1 40.9364 39.0463 77.8553
1 39.4194 36.817 77.8818
1 42.6298 35.0887 75.4669
1 43.8373 37.5484 75.5316
1 43.8655 39.1886 77.8366
1 42.42 36.6103 77.8017
1 45.4522 35.1845 75.4131
1 46.726 37.7407 75.5535
1 46.7085 39.3306 77.9126
1 45.3818 36.774 77.8483
1 48.2599 35.2066 75.5214
1 49.5327 37.6248 75.5396
1 49.5664 39.3001 77.8976
1 48.1225 36.8251 77.8798
1 35.1913 42.5578 75.5562
1 34.8787 43.9594 77.8726
1 36.6341 40.1437 75.5106
1 38.0085 42.4967 75.5326
1 37.8278 44.0162 77.8168