5538
Atoms. Timestep: 70000
1 42.8002 36.3563 5.58573
1 47.1935 35.4613 7.72893
1 45.6387 36.1116 5.3879
1 49.0366 33.3116 8.06544
1 50.0219 34.0593 5.35543
1 37.3603 38.15 7.87769
1 35.9311 39.0423 5.65192
1 40.0665 37.9192 7.81431
1 40.0028 41.3472 5.43723
1 38.5823 38.699 5.49427
1 41.7845 35.6891 8.06185
1 42.9128 38.0292 7.72112
1 42.7868 41.2985 5.33854
1 41.3678 38.7841 5.41648
1 44.4532 35.4158 7.76963
1 45.765 37.8822 7.81075
1 45.6514 41.3545 5.26895
1 44.2493 38.7029 5.34987
1 48.4524 36.3305 5.36068
1 49.8636 40.651 7.70424
1 49.7824 38.9075 5.37183
1 47.0117 38.7593 5.37704
1 34.4739 42.9454 8.02245
1 33.0484 43.8724 5.75918
1 35.7358 40.4386 7.90871
1 37.2245 42.912 7.83707
1 35.6924 43.7037 5.48378
1 34.4034 41.3694 5.68886
1 38.5678 40.4965 7.92526
1 40.1167 42.9123 7.79919
1 38.5788 43.8182 5.46693
1 37.1788 41.313 5.46347
1 41.4198 40.5002 7.72735
1 42.8615 43.0087 7.76772
1 42.8691 46.3843 5.13018
1 41.3939 43.7831 5.32979
1 44.3201 40.4641 7.71848
1 45.7377 42.9738 7.64827
1 46.937 43.9251 5.29165
1 44.1852 43.8508 5.34658
1 47.0769 40.4836 7.68478
1 51.3035 43.1325 7.57236
1 49.74 43.9936 5.16285
1 48.4816 41.4195 5.27617
1 31.6763 47.9711 7.80053
1 32.7804 48.8383 5.41449
1 32.9258 45.3546 7.985
1 34.2405 48.024 7.76623
1 35.5965 48.8508 5.27767
1 31.8021 46.2425 5.63074
1 35.7186 45.4928 7.86628
1 37.0653 47.9071 7.64018
1 38.5313 48.8503 5.29275
1 34.3199 46.2457 5.48141
1 38.6562 45.5102 7.8003
1 39.943 48.0568 7.60329
1 41.2947 48.8305 5.17647
1 37.152 46.3996 5.42804
1 41.4702 45.5289 7.69106
1 42.7678 48.0922 7.5511
1 44.117 50.469 7.5016
1 39.9982 46.3564 5.35688
1 44.2125 45.5498 7.681
1 45.6143 48.0149 7.4739
1 48.3358 48.1092 7.30594
1 44.2313 48.8599 5.09058
1 48.4342 43.003 7.64274
1 49.7444 45.5644 7.45788
1 51.1657 48.108 7.4344
1 47.0457 45.5645 7.57604
1 32.8657 50.4091 7.69673
1 35.5821 50.4954 7.5654
1 38.3938 50.4859 7.55976
1 41.2516 50.4957 7.46913
1 46.876 50.5105 7.35127
1 49.6679 50.6262 7.305
1 44.5563 33.9911 12.6411
1 48.5452 38.0583 7.72767
1 47.3052 34.0081 12.6395
1 50.075 35.6669 7.734
1 50.2392 33.9511 12.5654
1 38.758 37.4211 10.2879
1 38.5882 38.9175 12.6346
1 41.4682 37.1675 10.216
1 41.5486 38.8249 12.4995
1 40.2101 36.5866 12.6953
1 43.0816 34.782 10.3637
1 44.3301 37.0823 10.095
1 44.4053 38.742 12.5092
1 42.9416 36.2461 12.6371
1 45.816 34.6676 10.223
1 47.1915 37.0617 10.1504
1 47.302 38.8573 12.4744
1 45.8385 36.363 12.5569
1 48.6241 34.7189 10.2812
1 50.061 37.1547 10.1088
1 50.0956 38.85 12.4594
1 48.751 36.376 12.5352
1 35.8369 42.2345 10.2667
1 35.7413 43.7842 12.6065
1 37.2725 39.7869 10.191
1 38.7129 42.0819 10.3037
1 38.6367 43.8279 12.5507
1 37.1555 41.333 12.6534
1 40.1352 39.6034 10.2505
1 41.5404 42.095 10.285
1 41.5202 43.8485 12.4883
1 40.1157 41.2658 12.5874
1 42.9215 39.6797 10.1249
1 44.3626 42.1364 10.0596
1 44.3472 43.8633 12.4743
1 42.9828 41.3208 12.5415
1 45.7332 39.6458 10.0891
1 47.1172 42.1593 10.1045
1 47.1537 43.8748 12.3904
1 45.7584 41.3423 12.4778
1 48.6048 39.5713 10.1655
1 49.8846 42.1501 10.0501
1 50.0114 43.9859 12.3607
1 48.5891 41.4038 12.4381
1 32.8477 47.1134 10.1809
1 32.7826 48.6543 12.4399
1 34.3583 44.5605 10.1771
1 35.6859 47.1108 10.1939
1 35.5721 48.7642 12.4061
1 34.1457 46.2461 12.4912
1 37.2233 44.64 10.2046
1 38.5565 47.1104 10.0356
1 38.3687 48.8433 12.3576
1 37.1 46.3179 12.5378
1 40.1059 44.5713 10.1164
1 41.4612 47.0251 9.99967
1 41.3168 48.8779 12.4005
1 39.9319 46.422 12.4729
1 42.8303 44.6666 10.1311
1 44.3149 47.3019 9.96505
1 44.2095 48.8889 12.2441
1 42.7977 46.3818 12.403
1 45.7035 44.6495 10.0591
1 46.987 47.2565 9.83314
1 46.9829 48.8615 12.1745
1 45.608 46.3586 12.2807
1 48.5348 44.6637 9.90964
1 49.7243 47.3438 9.76072
1 49.8412 48.9771 12.1535
1 48.4688 46.3946 12.3173
1 34.1378 49.5436 10.1035
1 37.0163 49.5866 9.89944
1 39.8721 49.5949 10.0223
1 42.6615 49.6222 9.93888
1 45.5945 49.7968 9.79772
1 48.3585 49.8772 9.75128
1 44.6641 34.0194 17.254
1 50.6393 32.6238 14.9694
1 47.4976 33.9085 17.4225
1 53.2695 32.6602 14.7782
1 50.3931 33.882 17.3146
1 38.9224 37.2424 15.0309
1 38.6656 38.7356 17.4314
1 41.6 37.1287 14.952
1 41.6231 38.7897 17.3104
1 40.1788 36.4831 17.3376
1 43.2484 34.7711 14.8587
1 44.3699 37.2548 14.9482
1 44.5016 38.8631 17.2715
1 42.9843 36.1685 17.3209
1 46.015 34.6943 15.0003
1 47.1965 37.1652 14.8583
1 47.2898 38.9109 17.2343
1 45.8975 36.3691 17.2623
1 48.812 34.7236 14.8668
1 50.1952 37.3227 14.8027
1 50.1817 38.9749 17.2471
1 48.7596 36.3691 17.2234
1 35.9489 42.1741 14.8758
1 35.6011 43.727 17.2009
1 37.416 39.7746 15.0837
1 38.702 42.1098 14.8743
1 38.5668 43.7396 17.2559
1 37.1452 41.3442 17.2614
1 40.1481 39.5607 14.986
1 41.484 42.1723 14.9142
1 41.4052 43.7888 17.1657
1 40.0656 41.246 17.2936
1 42.9965 39.7184 14.8758
1 44.3979 42.1781 14.8423
1 44.3251 43.7456 17.1761
1 42.9141 41.2978 17.1724
1 45.8769 39.66 14.8277
1 47.1964 42.2809 14.8706
1 47.2603 43.9116 17.1797
1 45.8189 41.3653 17.114
1 48.6478 39.7904 14.8842
1 49.9976 42.2689 14.7411
1 50.1034 44.0719 17.0294
1 48.7072 41.5196 17.2387
1 32.9326 47.2475 14.7752
1 32.904 48.7157 17.129
1 34.2995 44.7554 14.8414
1 35.6126 47.1926 14.7953
1 35.504 48.6961 17.1677
1 34.2377 46.133 17.2416
1 37.1078 44.58 14.8417
1 38.487 47.2258 14.8263
1 38.3345 48.8194 17.0546
1 37.0828 46.1731 17.0968
1 40.0224 44.6759 14.8317
1 41.3785 47.1959 14.7234
1 41.3773 48.7609 17.0796
1 39.9547 46.3063 17.1786
1 42.8348 44.7358 14.7455
1 44.2745 47.2507 14.7012
1 44.214 48.8451 16.9586
1 42.8144 46.2434 17.0947
1 45.7379 44.7725 14.6995
1 47.1129 47.2942 14.6406
1 47.0883 48.973 16.9711
1 45.7504 46.4225 17.1532
1 48.5581 44.8474 14.7811
1 49.9604 47.3656 14.5507
1 49.9922 49.143 16.9558
1 48.651 46.5031 17.0545
1 34.0943 49.6825 14.8356
1 37.0402 49.5962 14.6838
1 39.878 49.7206 14.7215
1 42.7563 49.7315 14.6988
1 45.5528 49.7772 14.5618
1 48.4827 49.842 14.5573
1 44.9157 33.7804 21.996
1 45.5107 32.5995 19.5704
1 47.7442 33.8157 21.9282
1 48.1204 32.4796 19.6024
1 50.6044 34.0157 21.8814
1 39.0519 37.218 19.7234
1 38.7761 38.6471 21.9863
1 41.7488 37.0546 19.7341
1 41.7129 38.8201 22.0053
1 40.3597 36.4451 22.0003
1 43.6485 34.674 19.6517
1 44.5973 37.2374 19.7514
1 44.4875 38.8181 21.9764
1 43.2103 36.1599 22.0265
1 46.4315 34.9399 19.6805
1 47.4862 37.4405 19.5417
1 47.4181 39.0566 21.9237
1 46.1176 36.4249 22.0256
1 49.2511 34.9563 19.6512
1 50.3634 37.4679 19.6296
1 50.2403 39.0382 21.902
1 48.9657 36.4302 22.0071
1 35.86 42.205 19.5766
1 35.6896 43.7184 21.8231
1 37.4811 39.6411 19.7657
1 38.6419 42.0423 19.6321
1 38.6218 43.7399 21.8968
1 37.1536 41.2325 21.9536
1 40.2628 39.7039 19.6365
1 41.5924 42.2471 19.5675
1 41.3996 43.7893 21.8914
1 40.1042 41.1505 21.9621
1 43.04 39.5835 19.532
1 44.456 42.1761 19.4924
1 44.4223 43.9296 21.7978
1 42.9703 41.3873 21.8922
1 45.8991 39.7584 19.6023
1 47.2413 42.3775 19.5578
1 47.2002 44.1139 21.7864
1 45.8663 41.4031 21.8344
1 48.7961 39.8873 19.6678
1 50.2103 42.4245 19.4392
1 50.1179 44.0312 21.8045
1 48.7543 41.6734 21.7783
1 32.8989 47.132 19.4627
1 32.8595 48.6912 21.9002
1 34.4046 44.7158 19.5557
1 35.5816 47.1846 19.581
1 35.5116 48.7807 21.8949
1 34.225 46.2212 21.8672
1 37.1364 44.6761 19.4091
1 38.5031 47.1789 19.3997
1 38.4174 48.8473 21.7068
1 37.1212 46.1585 21.7924
1 39.9739 44.6397 19.5711
1 41.4321 47.1863 19.4092
1 41.3216 48.9251 21.652
1 39.9245 46.3204 21.8584
1 42.907 44.7158 19.4898
1 44.3296 47.2545 19.3627
1 44.1974 48.9601 21.6831
1 42.7875 46.4723 21.7547
1 45.7271 44.7624 19.442
1 47.2212 47.3438 19.4037
1 46.9989 49.0361 21.6195
1 45.7327 46.5117 21.7373
1 48.6794 44.8671 19.4094
1 50.1259 47.3602 19.3212
1 49.9602 48.9904 21.6798
1 48.5998 46.5012 21.7792
1 33.9515 49.6449 19.5454
1 36.9469 49.55 19.3825
1 39.8355 49.7565 19.2723
1 42.7866 49.8776 19.3072
1 45.5888 49.7774 19.3068
1 48.495 49.8218 19.2637
1 45.0219 33.9092 26.6474
1 45.06 32.533 24.3873
1 47.8093 33.7978 26.6708
1 47.688 32.4083 24.3809
1 50.6254 33.9998 26.5805
1 39.1214 37.0934 24.3938
1 38.8314 38.6013 26.6537
1 41.8473 37.0755 24.2546
1 41.8066 38.7911 26.5584
1 40.4668 36.4539 26.6641
1 43.5319 34.7287 24.3932
1 44.68 37.2166 24.3072
1 44.6337 38.9146 26.5762
1 43.2989 36.2803 26.7243
1 46.3607 34.8293 24.252
1 47.6734 37.3364 24.3336
1 47.4988 39.0677 26.6827
1 46.2054 36.3657 26.5585
1 49.1639 34.7912 24.3107
1 50.5242 37.3658 24.2739
1 50.454 39.0941 26.6321
1 49.0768 36.5028 26.5947
1 35.9716 42.1033 24.1839
1 35.7137 43.6634 26.5202
1 37.5357 39.5191 24.3034
1 38.6971 42.0768 24.239
1 38.6229 43.6849 26.525
1 37.1465 41.1307 26.5693
1 40.2432 39.5167 24.3609
1 41.6151 42.1066 24.1881
1 41.5031 43.7881 26.4033
1 40.0791 41.1667 26.6098
1 43.1526 39.6847 24.2768
1 44.3975 42.2701 24.1494
1 44.4379 43.9961 26.4744
1 43.0888 41.4461 26.5283
1 46.0798 39.8 24.2639
1 47.1856 42.3759 24.1181
1 47.3636 44.0709 26.4405
1 45.8598 41.4413 26.5749
1 48.9045 39.8326 24.2955
1 50.1129 42.3638 24.143
1 50.2586 44.0833 26.5073
1 48.8339 41.4374 26.5654
1 33.1131 47.2812 24.1603
1 32.901 48.7141 26.6074
1 34.4527 44.6528 24.2098
1 35.6979 47.1436 24.1428
1 35.582 48.7138 26.4648
1 34.2252 46.1983 26.4898
1 37.1258 44.5229 24.182
1 38.5419 47.0931 24.0843
1 38.4826 48.6746 26.4444
1 37.0762 46.2126 26.5108
1 40.0134 44.6327 24.2219
1 41.4235 47.1593 24.082
1 41.4302 48.8367 26.3551
1 39.9838 46.3262 26.4832
1 42.8606 44.6949 24.1073
1 44.2723 47.2464 24.0413
1 44.3252 49.0361 26.3707
1 42.9112 46.3273 26.4416
1 45.8477 44.846 24.1519
1 47.1438 47.4033 24.0411
1 47.2465 49.088 26.3157
1 45.8261 46.607 26.3985
1 48.7903 44.8281 24.0628
1 50.0518 47.4756 24.0689
1 50.1337 49.0592 26.2924
1 48.6836 46.6506 26.3316
1 34.1035 49.6675 24.2043
1 37.1083 49.7347 24.018
1 39.8979 49.6261 23.9769
1 42.8083 49.6453 23.9854
1 45.645 49.9438 23.9254
1 48.5041 49.901 23.8903
1 45.6221 32.6494 29.1606
1 48.2716 32.4708 29.1828
1 39.1345 37.1821 29.066
1 41.9089 37.119 28.9846
1 43.8303 34.7619 29.005
1 44.7735 37.2981 28.999
1 46.5683 34.9678 29.0311
1 47.7687 37.3694 28.8994
1 49.3491 34.8927 28.8847
1 50.6208 37.4602 28.893
1 36.0781 42.1779 28.8272
1 37.63 39.6587 28.8569
1 38.8219 42.0921 28.844
1 40.3882 39.6407 28.9237
1 41.6662 42.1149 28.8407
1 43.2516 39.6583 28.9226
1 44.53 42.2473 28.9367
1 46.0147 39.8081 28.9531
1 47.4803 42.3514 28.7997
1 48.9285 39.8345 28.9303
1 50.306 42.4774 28.8864
1 33.0463 47.0308 28.8077
1 34.5258 44.6433 28.7743
1 35.7053 47.085 28.7647
1 37.3597 44.6526 28.827
1 38.6367 47.1729 28.7931
1 40.1778 44.6619 28.8156
1 41.5679 47.1408 28.7471
1 43.0491 44.6932 28.7552
1 44.3411 47.3481 28.7239
1 45.8737 44.7651 28.7612
1 47.2719 47.3358 28.7203
1 48.8587 44.9169 28.752
1 50.1107 47.4323 28.6837
1 34.1688 49.6986 28.7191
1 37.0709 49.5437 28.7055
1 40.0071 49.6974 28.6339
1 42.8951 49.7932 28.6277
1 45.7346 49.9397 28.6695
1 48.6279 50.021 28.6351
1 44.8812 33.9797 31.3458
1 47.7983 33.9285 31.3517
1 50.5818 33.964 31.3313
1 38.9078 38.8676 31.315
1 41.7755 38.87 31.2474
1 40.4486 36.5639 31.3637
1 44.6895 38.9146 31.2504
1 43.228 36.3885 31.3025
1 47.5304 39.0494 31.2797
1 46.0795 36.473 31.4001
1 50.3554 39.0941 31.3073
1 49.0217 36.5511 31.23
1 35.764 43.73 31.0619
1 38.7189 43.7734 31.1848
1 37.3547 41.3244 31.2162
1 41.6965 43.963 31.1688
1 40.1875 41.2861 31.2576
1 44.5377 43.9916 31.1287
1 43.1009 41.4241 31.2181
1 47.4233 43.979 31.0743
1 45.953 41.4603 31.2433
1 50.3011 44.0494 31.2168
1 48.9085 41.5708 31.2482
1 33.0208 48.5994 31.1331
1 35.6914 48.8213 31.1241
1 34.3371 46.2899 31.1754
1 38.626 48.8586 31.0168
1 37.0733 46.2669 31.1023
1 41.4278 48.8706 30.9725
1 40.0879 46.3252 31.1684
1 44.4151 48.9138 31.0527
1 43.0508 46.3979 31.112
1 47.3191 49.1425 31.0302
1 45.8876 46.4407 31.0387
1 50.1623 49.2188 31.0117
1 48.7476 46.6502 30.9973
1 44.903 34.0817 36.0958
1 48.2961 32.6004 33.6725
1 47.7446 34.018 36.0066
1 50.8531 32.619 33.6615
1 50.4942 34.054 35.866
1 39.0605 37.3637 33.641
1 38.7065 38.9328 35.8171
1 41.8434 37.0688 33.6254
1 41.7298 38.7562 35.9634
1 40.3292 36.5461 35.9528
1 43.6513 34.8451 33.6318
1 44.7618 37.2482 33.6794
1 44.4985 38.8391 35.982
1 43.1774 36.251 36.0028
1 46.3747 34.6802 33.7014
1 47.6275 37.3349 33.5899
1 47.4832 39.0221 35.8924
1 46.1975 36.4098 35.9388
1 49.2502 35.0187 33.5725
1 50.4831 37.4749 33.5738
1 50.4681 39.0983 35.9094
1 49.0484 36.578 35.9437
1 35.9005 42.1154 33.3782
1 35.7357 43.7121 35.6732
1 37.4144 39.6894 33.538
1 38.7401 42.1457 33.5182
1 38.5913 43.8233 35.8014
1 37.0498 41.2401 35.7351
1 40.3622 39.6426 33.5854
1 41.6298 42.1503 33.5765
1 41.558 43.8679 35.7726
1 40.0835 41.2961 35.8503
1 43.2449 39.7722 33.5595
1 44.572 42.3491 33.5082
1 44.4465 43.898 35.7874
1 43.0653 41.4037 35.8563
1 46.0995 39.7856 33.6468
1 47.395 42.3807 33.5305
1 47.3483 44.0932 35.7988
1 45.9171 41.5135 35.9421
1 48.949 39.9071 33.6285
1 50.2927 42.5064 33.5741
1 50.1371 44.142 35.7898
1 48.813 41.5585 35.9609
1 33.0735 47.0968 33.4961
1 33.0978 48.6521 35.7498
1 34.4152 44.6203 33.3743
1 35.7965 47.1235 33.4404
1 35.7185 48.7065 35.7196
1 34.3971 46.1033 35.7503
1 37.1405 44.5526 33.3837
1 38.6098 47.1955 33.4462
1 38.5735 48.8597 35.7634
1 37.1672 46.3159 35.7209
1 40.2048 44.6463 33.4613
1 41.4401 47.1952 33.3814
1 41.3561 48.8505 35.6812
1 40.0394 46.2706 35.7993
1 42.987 44.7274 33.5329
1 44.4196 47.2479 33.3963
1 44.2997 48.9482 35.6564
1 42.927 46.4327 35.7955
1 45.8847 44.883 33.4405
1 47.3239 47.4212 33.4058
1 47.2338 48.9893 35.6824
1 45.9045 46.5007 35.7817
1 48.7929 44.8761 33.3865
1 50.102 47.5663 33.3291
1 50.101 49.1471 35.7527
1 48.727 46.6402 35.7209
1 34.3178 49.6232 33.3934
1 37.2057 49.639 33.3913
1 39.9647 49.7573 33.4
1 42.8419 49.7266 33.3416
1 45.7268 49.7802 33.346
1 48.6853 50.0134 33.3079
1 44.6995 33.9897 40.7189
1 47.9821 32.5889 38.2581
1 47.5999 33.9598 40.7443
1 50.6481 32.5469 38.2382
1 50.4099 33.9408 40.5729
1 38.9593 37.2962 38.2098
1 38.5388 38.7233 40.4862
1 41.6438 37.0201 38.2393
1 41.5244 38.7691 40.5676
1 40.0531 36.4362 40.6104
1 43.4435 34.7071 38.4184
1 44.5982 37.0764 38.2363
1 44.4229 38.8485 40.4876
1 42.9267 36.2752 40.6234
1 46.1557 34.7134 38.3735
1 47.507 37.324 38.3105
1 47.2965 38.9121 40.5805
1 45.9188 36.4654 40.644
1 49.0595 34.8695 38.3454
1 50.3943 37.4818 38.3273
1 50.2024 39.1522 40.5521
1 48.8626 36.4608 40.6116
1 35.884 42.1315 37.9816
1 35.607 43.6812 40.3418
1 37.3559 39.7468 38.0955
1 38.6678 42.1149 38.1349
1 38.4411 43.7339 40.4748
1 37.1443 41.2324 40.3895
1 40.2495 39.6076 38.2596
1 41.5445 42.1805 38.2102
1 41.3906 43.8311 40.4782
1 39.9264 41.2067 40.4562
1 43.0485 39.6707 38.2566
1 44.4118 42.1933 38.2418
1 44.2906 43.9158 40.4535
1 42.9107 41.399 40.5197
1 45.9365 39.7895 38.1794
1 47.2814 42.4056 38.2145
1 47.2045 44.0236 40.5805
1 45.7795 41.4631 40.5399
1 48.8416 39.9329 38.2105
1 50.2119 42.5232 38.1871
1 50.1107 44.0881 40.5121
1 48.7239 41.5267 40.6087
1 33.0536 47.1816 37.9296
1 32.8199 48.641 40.2784
1 34.4402 44.5787 38.0028
1 35.6465 47.0291 38.0775
1 35.5432 48.7492 40.3322
1 34.2101 46.1645 40.3479
1 37.2047 44.6239 38.1058
1 38.5574 47.1168 38.0973
1 38.4075 48.8816 40.35
1 37.0835 46.2525 40.3892
1 40.123 44.6433 38.0554
1 41.4653 47.2282 38.1279
1 41.4207 48.9081 40.4247
1 39.9118 46.3266 40.3452
1 42.983 44.7001 38.0839
1 44.3554 47.3434 38.1057
1 44.3532 49.0231 40.3923
1 42.8763 46.4094 40.4079
1 45.8952 44.8729 38.1444
1 47.2137 47.4282 38.1244
1 47.2035 48.9902 40.3949
1 45.8007 46.4873 40.4864
1 48.7276 44.9692 38.1022
1 50.0908 47.4332 37.9536
1 50.0109 49.184 40.2139
1 48.6261 46.4887 40.4395
1 34.1723 49.6739 38.1006
1 36.9943 49.5932 37.9656
1 39.9914 49.6676 38.0502
1 42.773 49.7325 38.0467
1 45.7646 49.8488 37.9701
1 48.643 49.9017 38.0259
1 45.1834 32.6383 43.0776
1 47.9939 32.6346 43.0539
1 38.7224 37.2486 42.9206
1 41.4513 37.1883 42.942
1 43.3938 34.8124 43.0578
1 44.2828 37.2709 42.8727
1 46.2289 34.8999 42.9247
1 47.2828 37.4011 42.9062
1 49.0655 34.9903 42.8906
1 50.1687 37.5213 42.9121
1 35.7308 42.1426 42.6997
1 37.2296 39.6894 42.7747
1 38.4589 42.0931 42.7831
1 40.0531 39.6572 42.8002
1 41.3059 42.1061 42.8326
1 42.899 39.7536 42.8023
1 44.1898 42.2732 42.8131
1 45.7246 39.8056 42.8365
1 47.1286 42.3362 42.8666
1 48.6263 39.8824 42.8933
1 50.0606 42.473 42.7788
1 32.8788 47.1268 42.6255
1 34.3421 44.7819 42.6929
1 35.5175 47.1837 42.7034
1 37.043 44.6379 42.691
1 38.4029 47.2932 42.6725
1 39.9519 44.6585 42.7633
1 41.2234 47.198 42.6915
1 42.7112 44.7353 42.7252
1 44.2118 47.2773 42.7423
1 45.6496 44.9165 42.8469
1 47.1028 47.4176 42.8042
1 48.5815 44.9703 42.8378
1 49.9204 47.5792 42.6906
1 34.0165 49.7191 42.6161
1 36.9412 49.7356 42.7489
1 39.8059 49.7208 42.6508
1 42.7812 49.7996 42.7363
1 45.6206 49.8535 42.6941
1 48.4513 50.054 42.5678
1 44.5242 33.9768 45.3175
1 47.1745 33.8217 45.3563
1 50.0762 33.9481 45.3029
1 38.3385 38.7464 45.2262
1 41.2816 38.7827 45.2018
1 39.9372 36.4557 45.1349
1 44.2278 38.9193 45.1957
1 42.7783 36.3306 45.2044
1 47.065 39.0716 45.2484
1 45.7566 36.4271 45.2922
1 49.9144 39.0269 45.2022
1 48.5424 36.4623 45.3271
1 35.5275 43.7827 45.0464
1 38.3931 43.7308 45.1059
1 36.8405 41.2846 45.1312
1 41.2468 43.8502 45.0716
1 39.7453 41.2737 45.1837
1 44.1445 43.8728 45.0422
1 42.6776 41.3443 45.0888
1 46.9503 44.0329 45.1287
1 45.5786 41.4514 45.1517
1 49.9035 44.0659 45.1502
1 48.4881 41.5459 45.1706
1 32.8405 48.7313 44.9257
1 35.4564 48.8644 44.9615
1 34.0566 46.2481 45.0489
1 38.3673 48.892 45.0018
1 36.9462 46.3871 45.0127
1 41.2007 48.8189 45.0209
1 39.7584 46.3348 45.076
1 44.091 48.9124 45.0832
1 42.7624 46.4147 45.0652
1 47.0743 49.0779 44.9711
1 45.5998 46.5138 45.1511
1 49.8973 49.171 44.9878
1 48.503 46.5529 45.1073
1 44.2192 34.004 49.966
1 44.9389 32.6467 47.7248
1 46.9783 33.7718 49.8459
1 47.6144 32.3964 47.6545
1 49.8088 33.8903 49.9468
1 38.4351 37.2564 47.4866
1 38.2514 38.7119 49.832
1 41.2559 37.0679 47.5393
1 41.132 38.7031 49.8758
1 39.7098 36.4458 49.8344
1 42.973 34.6796 47.5303
1 44.1958 37.252 47.6072
1 43.9595 38.8971 49.9383
1 42.5733 36.2647 49.8788
1 45.9214 34.8628 47.5917
1 47.0539 37.3896 47.6568
1 46.8614 38.9644 49.9665
1 45.5184 36.3577 49.9234
1 48.6629 34.9361 47.6338
1 49.9514 37.4393 47.5299
1 49.7678 39.0234 49.9252
1 48.3051 36.3661 49.8797
1 35.5604 42.2946 47.3633
1 35.1946 43.7681 49.7409
1 36.874 39.6334 47.4457
1 38.2912 42.1143 47.5077
1 38.1504 43.7883 49.7593
1 36.686 41.3039 49.7843
1 39.6684 39.5592 47.5293
1 41.181 42.1637 47.3978
1 41.0782 43.7574 49.8637
1 39.546 41.2952 49.8259
1 42.6056 39.5681 47.4747
1 44.045 42.2653 47.4768
1 43.9503 43.9782 49.8679
1 42.4619 41.3024 49.6328
1 45.465 39.8046 47.4997
1 46.9433 42.403 47.4609
1 46.7697 43.9711 49.8315
1 45.4886 41.4073 49.7745
1 48.4441 39.9119 47.5495
1 49.8927 42.3904 47.477
1 49.7203 44.0727 49.7358
1 48.3794 41.5806 49.7963
1 32.8712 47.254 47.2914
1 32.5837 48.6381 49.7
1 34.082 44.6711 47.2839
1 35.4401 47.1885 47.2737
1 35.1598 48.7691 49.5859
1 33.8071 46.1454 49.677
1 36.8354 44.6846 47.3407
1 38.2838 47.1437 47.4337
1 38.1315 48.777 49.7297
1 36.685 46.2153 49.6757
1 39.8012 44.6708 47.4101
1 41.1552 47.0942 47.2846
1 41.112 48.9349 49.6237
1 39.5596 46.3039 49.7202
1 42.5642 44.6785 47.4656
1 43.9713 47.3268 47.4538
1 43.9405 48.9257 49.7002
1 42.4515 46.393 49.6205
1 45.4398 44.8984 47.4212
1 46.9773 47.4344 47.4486
1 46.8659 49.0843 49.6436
1 45.4162 46.5137 49.7161
1 48.3856 44.8789 47.4274
1 49.8126 47.3431 47.3374
1 49.6928 49.2247 49.6902
1 48.3582 46.5504 49.6812
1 33.9309 49.8011 47.3309
1 36.8479 49.6399 47.3008
1 39.7133 49.6811 47.2986
1 42.5676 49.7785 47.2806
1 45.4165 49.8452 47.3386
1 48.3348 49.9836 47.2483
1 44.0826 33.8213 54.7273
1 47.2099 32.5009 52.4067
1 46.9027 33.8014 54.7735
1 49.9515 32.5184 52.2638
1 49.6073 33.886 54.5464
1 38.3286 37.2858 52.2102
1 38.0297 38.8559 54.4924
1 41.0501 37.0063 52.3372
1 40.973 38.8564 54.5329
1 39.4585 36.5633 54.5345
1 42.8138 34.7984 52.4129
1 43.9617 37.225 52.2402
1 43.8279 38.8473 54.5171
1 42.3894 36.2224 54.6269
1 45.5394 34.6846 52.3423
1 46.7605 37.3853 52.2978
1 46.679 38.954 54.5654
1 45.3082 36.4105 54.5608
1 48.3317 34.9076 52.23
1 49.6234 37.4638 52.1897
1 49.5769 38.9031 54.6117
1 48.1116 36.3613 54.5844
1 35.2292 42.3093 52.0338
1 35.0204 43.8754 54.4241
1 36.7939 39.7069 52.1908
1 38.0078 42.1943 52.1455
1 37.8978 43.8217 54.4196
1 36.5273 41.3376 54.4527
1 39.5533 39.6311 52.0578
1 40.9756 42.0917 52.0885
1 40.8327 43.7842 54.4344
1 39.3887 41.2734 54.4835
1 42.4916 39.6032 52.1526
1 43.8442 42.2457 52.0775
1 43.7504 43.8673 54.286
1 42.3363 41.315 54.4273
1 45.3379 39.774 52.2326
1 46.7756 42.4227 52.0601
1 46.6181 43.9681 54.4147
1 45.1988 41.4143 54.5618
1 48.2466 39.8842 52.1543
1 49.6227 42.3865 52.1945
1 49.4707 44.0742 54.4764
1 48.0272 41.4817 54.4701
1 32.4461 47.2589 52.0246
1 32.3472 48.7132 54.3712
1 33.7506 44.7171 52.067
1 35.2491 47.2053 51.9779
1 35.0072 48.7713 54.3996
1 33.5703 46.3287 54.3616
1 36.5906 44.6365 51.9364
1 38.0419 47.1057 52.0385
1 38.002 48.8205 54.3969
1 36.3775 46.3535 54.3627
1 39.4534 44.6703 52.0776
1 40.924 47.3113 51.9124
1 40.8037 48.8536 54.2964
1 39.4658 46.2777 54.3647
1 42.2983 44.7918 52.04
1 43.8222 47.2642 52.0065
1 43.6612 48.9455 54.413
1 42.3068 46.4289 54.295
1 45.2764 44.8503 52.0798
1 46.6954 47.3513 51.9963
1 46.5379 48.997 54.3699
1 45.145 46.4867 54.4301
1 48.2397 44.8743 52.1014
1 49.5096 47.4345 52.0202
1 49.3883 49.0919 54.2885
1 48.002 46.6156 54.3827
1 33.6181 49.726 52.0777
1 36.5017 49.6549 51.9466
1 39.4856 49.704 51.9975
1 42.3459 49.8692 52.0383
1 45.1365 49.8202 52.0298
1 48.0728 49.8739 51.9948
1 43.6542 34.0225 59.2899
1 44.2602 32.4895 57.213
1 46.553 33.7395 59.2619
1 46.8188 32.3472 56.9798
1 49.4024 33.5707 59.4604
1 37.9706 37.356 56.8496
1 37.7244 38.9479 59.2128
1 40.7378 37.0034 56.8466
1 40.6842 38.8685 59.1353
1 39.2571 36.7049 59.2091
1 42.5677 34.7114 56.9174
1 43.6294 37.2525 56.9075
1 43.5616 38.9234 59.2599
1 42.14 36.3823 59.229
1 45.2867 34.8528 57.0655
1 46.578 37.3379 56.9426
1 46.4852 38.9127 59.2174
1 45.0673 36.3822 59.3208
1 48.1256 34.8626 57.0642
1 49.4837 37.2425 56.9055
1 49.3296 38.9052 59.2263
1 47.8615 36.3557 59.3095
1 35.0535 42.3485 56.7222
1 34.8851 43.9002 59.0181
1 36.7359 39.7838 56.8178
1 37.8999 42.1861 56.6787
1 37.8116 43.8099 59.1227
1 36.364 41.4256 59.14
1 39.4846 39.6218 56.7963
1 40.7691 42.2008 56.7914
1 40.6698 43.9019 59.037
1 39.232 41.3752 59.1188
1 42.2603 39.7172 56.8957
1 43.57 42.1969 56.8523
1 43.5375 43.9522 59.126
1 42.1296 41.422 59.2677
1 45.1056 39.7378 56.8609
1 46.5274 42.3735 56.7943
1 46.5131 43.8908 59.2006
1 45.0628 41.3975 59.218
1 48.0161 39.8018 56.8554
1 49.438 42.2765 56.7141
1 49.2319 43.9553 59.0296
1 47.9247 41.4256 59.2085
1 32.2792 47.2772 56.8129
1 32.2612 48.774 59.1018
1 33.69 44.8322 56.668
1 34.9493 47.2564 56.786
1 34.9158 48.8798 59.2455
1 33.4695 46.2998 59.1152
1 36.4276 44.7453 56.7594
1 37.869 47.148 56.5919
1 37.741 48.8425 58.9858
1 36.2747 46.3161 59.1308
1 39.3205 44.6688 56.7164
1 40.721 47.1965 56.7437
1 40.6741 48.8867 59.071
1 39.1954 46.3498 59.0883
1 42.2031 44.7569 56.6863
1 43.5504 47.2806 56.7006
1 43.6118 48.9348 59.0164
1 42.1198 46.3961 59.0597
1 45.0268 44.7454 56.7389
1 46.4204 47.2457 56.7412
1 46.4817 48.9483 58.9771
1 45.0157 46.3665 59.0963
1 47.9303 44.8723 56.738
1 49.3591 47.3595 56.7039
1 49.3411 48.9907 58.9689
1 47.8416 46.5152 59.0708
1 33.5859 49.8156 56.8839
1 36.4463 49.76 56.6753
1 39.2571 49.7537 56.7515
1 42.1213 49.7155 56.7839
1 45.0269 49.8791 56.6723
1 47.9528 49.7404 56.6096
1 43.6055 34.2276 63.8786
1 46.9174 32.4062 61.6286
1 46.4637 33.7815 64.1066
1 49.5529 32.3202 61.8607
1 49.13 33.7691 64.0526
1 37.9194 37.4202 61.5215
1 37.7586 38.8628 63.9684
1 40.6989 37.1372 61.5467
1 40.5471 38.8822 63.8933
1 39.2363 36.6069 63.9342
1 42.3478 34.8788 61.5569
1 43.558 37.2134 61.6692
1 43.4818 38.909 63.9588
1 42.0678 36.4664 63.8974
1 45.1171 34.6186 61.6159
1 46.394 37.1784 61.6644
1 46.4594 39.0089 63.8995
1 45.0542 36.4348 63.954
1 47.9745 34.7737 61.6616
1 49.311 37.3839 61.5365
1 49.2503 38.8823 63.8791
1 47.8574 36.3342 63.9526
1 35.0398 42.3562 61.5789
1 34.8904 43.9232 63.8668
1 36.4794 39.8691 61.646
1 37.7033 42.2301 61.482
1 37.742 43.8146 63.9355
1 36.2673 41.4576 63.9794
1 39.2899 39.7934 61.409
1 40.6107 42.2079 61.5689
1 40.5928 43.8503 63.8743
1 39.208 41.3861 63.7942
1 42.0909 39.7379 61.618
1 43.5353 42.2328 61.598
1 43.4488 43.9336 63.8801
1 42.0211 41.3562 63.8901
1 45.0036 39.7526 61.4838
1 46.4238 42.154 61.522
1 46.3476 43.9179 63.7951
1 44.9467 41.399 63.9664
1 47.9087 39.8476 61.5242
1 49.2749 42.3859 61.4912
1 49.2467 43.9614 63.7622
1 47.7904 41.4764 63.8855
1 32.2082 47.4451 61.4829
1 32.0607 48.6865 63.9965
1 33.5791 44.7791 61.5228
1 34.8995 47.2179 61.5818
1 34.7583 48.8885 63.89
1 33.4043 46.3574 63.8718
1 36.3314 44.6476 61.4441
1 37.7811 47.2517 61.3841
1 37.6681 48.8316 63.7972
1 36.3344 46.3388 63.7722
1 39.1414 44.6575 61.5277
1 40.6439 47.2142 61.3525
1 40.5846 48.8917 63.6716
1 39.2147 46.3492 63.7548
1 42.0408 44.6996 61.428
1 43.5119 47.2031 61.4211
1 43.4061 48.8999 63.6881
1 41.9841 46.3208 63.8349
1 45.0493 44.74 61.4079
1 46.4547 47.4145 61.3688
1 46.3006 48.9163 63.6251
1 44.879 46.3982 63.6474
1 47.8072 44.8669 61.4193
1 49.2972 47.3616 61.304
1 49.1735 48.8996 63.7059
1 47.7423 46.4736 63.7561
1 33.3494 49.8017 61.6204
1 36.2872 49.6825 61.4967
1 39.1994 49.7047 61.3525
1 42.0822 49.6814 61.3818
1 44.9925 49.929 61.2477
1 47.8182 49.8756 61.2693
1 43.6152 33.9448 68.7287
1 46.6101 32.528 66.5537
1 46.395 33.8808 68.7839
1 49.2083 32.4978 66.5376
1 49.1927 33.916 68.8252
1 38.0145 37.3952 66.3117
1 37.6875 38.8811 68.7238
1 40.7449 37.1279 66.2584
1 40.58 38.7743 68.7573
1 39.164 36.5707 68.7572
1 42.3371 34.939 66.3217
1 43.5712 37.2768 66.2755
1 43.4941 38.8413 68.726
1 42.0707 36.3259 68.6788
1 45.0282 34.6573 66.3628
1 46.3945 37.3349 66.3048
1 46.3597 38.9127 68.6012
1 44.8622 36.4028 68.6897
1 47.8383 34.8918 66.4132
1 49.1979 37.3492 66.2681
1 49.1487 38.9553 68.5573
1 47.7325 36.459 68.6793
1 35.1215 42.3503 66.4135
1 34.7946 43.8163 68.6788
1 36.4472 39.7851 66.2542
1 37.7559 42.2088 66.2344
1 37.7184 43.7994 68.5816
1 36.3315 41.3701 68.6679
1 39.1743 39.7881 66.3079
1 40.5836 42.1812 66.2381
1 40.5569 43.7975 68.5859
1 39.1664 41.3306 68.6977
1 42.0029 39.763 66.3025
1 43.4119 42.2498 66.2419
1 43.3956 43.8924 68.5203
1 42.0962 41.3229 68.6367
1 44.9275 39.834 66.3739
1 46.3254 42.3759 66.2916
1 46.3072 43.9899 68.514
1 44.8643 41.3406 68.6745
1 47.7629 39.8207 66.197
1 49.1538 42.3208 66.1818
1 49.203 43.9081 68.5406
1 47.7503 41.4326 68.5309
1 32.261 47.3093 66.3094
1 32.1855 48.7166 68.7421
1 33.7261 44.8628 66.3006
1 34.9254 47.2256 66.2398
1 34.8263 48.7959 68.6678
1 33.3695 46.376 68.6406
1 36.3252 44.6601 66.1825
1 37.812 47.2205 66.1268
1 37.6405 48.8175 68.5279
1 36.2564 46.2763 68.5754
1 39.2495 44.7524 66.1951
1 40.5949 47.2913 66.0901
1 40.5407 48.8995 68.3886
1 39.144 46.3568 68.5059
1 42.064 44.6896 66.1922
1 43.4757 47.2136 66.0994
1 43.404 48.8798 68.5063
1 41.9816 46.344 68.4929
1 44.8691 44.766 66.1234
1 46.2372 47.2539 66.0926
1 46.2198 48.9036 68.3911
1 44.8596 46.4392 68.4938
1 47.7694 44.7907 66.0834
1 49.1571 47.2297 66.0596
1 49.1041 48.9384 68.3681
1 47.7494 46.4652 68.4886
1 33.3304 49.8169 66.3992
1 36.2589 49.6859 66.1836
1 39.1648 49.7315 66.0055
1 42.0401 49.6654 66.0745
1 44.7996 49.8041 65.9536
1 47.6622 49.7429 65.9631
1 43.6093 33.9865 73.577
1 43.8012 32.5359 71.2464
1 46.4283 33.8209 73.3756
1 46.4569 32.4281 71.0489
1 49.2556 33.9061 73.4322
1 37.8745 37.416 71.0381
1 37.7615 38.9427 73.4778
1 40.6 37.1283 71.1205
1 40.6991 38.76 73.4083
1 39.1007 36.6335 73.5212
1 42.2718 34.6819 71.114
1 43.3806 37.2589 71.0443
1 43.5281 38.7886 73.4653
1 42.0664 36.3228 73.5166
1 44.9853 34.8864 71.1302
1 46.2536 37.3289 71.0335
1 46.3583 38.9248 73.3905
1 44.9281 36.4733 73.4212
1 47.802 34.872 71.1041
1 49.1156 37.2984 71.0166
1 49.1429 38.9109 73.3371
1 47.7489 36.3967 73.4193
1 35.0085 42.1103 71.0667
1 34.991 43.6381 73.4986
1 36.4106 39.774 71.1093
1 37.7472 42.1332 70.9666
1 37.9024 43.7508 73.4279
1 36.4312 41.3565 73.5329
1 39.1814 39.6752 71.0628
1 40.6133 42.2476 70.9848
1 40.8253 43.8001 73.3188
1 39.317 41.3974 73.3367
1 42.0233 39.6162 71.0374
1 43.4585 42.214 71.0378
1 43.5357 43.8668 73.2356
1 42.2012 41.3072 73.3696
1 44.9165 39.7539 71.0459
1 46.3483 42.3342 71.0567
1 46.3673 43.9186 73.2893
1 44.9453 41.4431 73.3843
1 47.7164 39.7703 70.9058
1 49.1441 42.297 71.0237
1 49.1767 43.9633 73.3099
1 47.7175 41.3997 73.4685
1 32.2879 47.0433 71.1472
1 32.2812 48.6199 73.5052
1 33.6628 44.6546 71.0598
1 34.9001 47.072 70.9444
1 34.9352 48.6501 73.3297
1 33.5666 46.1371 73.4727
1 36.3232 44.5121 71.0175
1 37.7057 47.1949 70.9931
1 37.7314 48.6738 73.2048
1 36.3588 46.1101 73.2698
1 39.1849 44.7649 70.9472
1 40.579 47.2846 70.8795
1 40.4984 48.8071 73.2927
1 39.2215 46.2193 73.2753
1 42.0864 44.7547 70.8703
1 43.4518 47.192 70.8937
1 43.4549 48.8923 73.2411
1 41.9596 46.3872 73.416
1 44.9317 44.7094 70.8808
1 46.27 47.2373 70.8988
1 46.3751 49.0154 73.2475
1 44.9094 46.4379 73.2886
1 47.7434 44.8299 70.9409
1 49.2487 47.2675 70.8005
1 49.194 48.9871 73.0835
1 47.7201 46.5226 73.1727
1 33.362 49.7243 71.229
1 36.2386 49.661 70.9302
1 39.1225 49.6833 70.8552
1 41.9417 49.6346 70.8242
1 44.8333 49.7366 70.873
1 47.6813 49.7418 70.6852
1 43.796 34.0055 78.2802
1 44.1457 32.5689 75.9331
1 46.6318 33.8124 78.1296
1 46.8324 32.4832 75.6606
1 49.3374 33.7909 78.2285
1 38.0792 37.4091 75.9206
1 37.9426 38.8589 78.1768
1 40.6917 37.1492 75.8635
1 40.8425 38.8823 78.1344
1 39.4147 36.5979 78.1962
1 42.4495 34.7392 75.9718
1 43.5293 37.2411 75.9081
1 43.6768 38.9233 78.2469
1 42.2797 36.3521 78.2374
1 45.184 34.8856 75.8386
1 46.4481 37.3939 75.7985
1 46.4648 38.9394 78.2532
1 45.0347 36.4002 78.2312
1 48.0002 34.8798 75.7624
1 49.2829 37.352 75.7139
1 49.2898 38.9154 78.0262
1 47.8718 36.4253 78.1064
1 35.2779 42.1604 75.9856
1 35.0906 43.7557 78.2536
1 36.5962 39.7352 75.9207
1 38.0062 42.0617 75.916
1 37.88 43.7861 78.2197