5538
Atoms. Timestep: 80000
1 42.4875 36.4254 4.63581
1 46.8916 35.8852 6.95173
1 45.3951 36.4532 4.54461
1 48.5807 33.8319 6.6759
1 49.907 34.2556 4.53943
1 36.8048 38.1159 6.84146
1 35.295 38.995 4.62327
1 39.5652 38.0187 6.74741
1 39.3651 41.2146 4.37411
1 37.9936 38.672 4.3799
1 41.3613 35.8755 7.05043
1 42.4262 38.2452 6.86287
1 42.3173 41.254 4.45025
1 40.8704 38.7637 4.39944
1 43.9944 35.8378 6.95969
1 45.3839 38.2605 6.83526
1 45.2224 41.4954 4.49011
1 43.8631 38.8634 4.46173
1 48.2677 36.5152 4.55953
1 49.6371 40.9778 6.89148
1 49.625 39.207 4.49593
1 46.6946 38.9228 4.44942
1 33.6296 42.9533 6.97323
1 32.3183 43.6085 4.66766
1 35.2148 40.5284 6.89167
1 36.5384 42.911 6.82746
1 34.9672 43.5542 4.46336
1 33.7181 41.2052 4.59542
1 38.0793 40.4185 6.82308
1 39.491 42.909 6.85505
1 37.9269 43.7814 4.62651
1 36.5672 41.2044 4.51282
1 40.9938 40.5529 6.73333
1 42.4139 43.0848 6.7856
1 42.2423 46.226 4.65551
1 40.829 43.6812 4.50255
1 43.9571 40.8063 6.83043
1 45.2686 43.2461 6.86303
1 46.6066 44.0173 4.48872
1 43.8038 43.8621 4.35606
1 46.7768 40.759 6.91372
1 50.9086 43.5853 6.94048
1 49.4612 44.2869 4.54544
1 48.0848 41.6118 4.59878
1 31.0063 47.7928 7.05311
1 32.1223 48.5335 4.58949
1 32.1725 45.2695 7.09785
1 33.6755 47.8158 6.98486
1 34.986 48.5765 4.70586
1 31.0475 46.0977 4.87124
1 35.012 45.2921 7.0707
1 36.5782 47.7917 7.02589
1 37.8675 48.5535 4.63787
1 33.6191 46.0197 4.55172
1 37.9597 45.402 7.10604
1 39.4232 47.8939 6.97986
1 40.8846 48.6856 4.60737
1 36.4717 45.9714 4.77307
1 40.9408 45.4597 6.95647
1 42.3858 48.0499 6.9463
1 43.6934 50.596 7.10156
1 39.2965 46.1804 4.68047
1 43.8678 45.6786 6.8209
1 45.2568 48.1529 6.94171
1 48.171 48.4122 6.91637
1 43.704 48.9226 4.75783
1 48.1107 43.3812 6.95219
1 49.5725 45.9484 6.96157
1 50.9682 48.4362 6.97449
1 46.7289 45.8447 6.87156
1 32.1804 50.1676 6.92824
1 34.9049 50.2844 7.1041
1 37.8884 50.3921 7.04386
1 40.7986 50.413 7.03058
1 46.6873 50.729 7.0909
1 49.5207 50.735 7.23003
1 44.3353 34.412 11.5463
1 48.2454 38.4308 6.76875
1 47.2383 34.613 11.5568
1 49.9072 36.113 6.86012
1 50.0584 34.4713 11.5692
1 38.3406 37.5338 9.16236
1 38.1775 39.1136 11.5521
1 41.1913 37.3556 9.25841
1 41.1324 39.1641 11.5582
1 39.7605 36.85 11.5672
1 42.8174 35.0436 9.19547
1 44.0463 37.5395 9.1701
1 43.9679 39.1944 11.6153
1 42.616 36.4772 11.6
1 45.6993 35.1094 9.20886
1 47.0454 37.5496 9.21785
1 46.9524 39.26 11.5718
1 45.4974 36.7957 11.513
1 48.6032 35.1155 9.18599
1 49.9912 37.7627 9.11553
1 49.986 39.39 11.5459
1 48.6493 36.9106 11.4701
1 35.1789 42.0984 9.22568
1 35.2203 43.8339 11.7558
1 36.6823 39.7547 9.19275
1 38.004 42.2169 9.22219
1 38.256 44.0014 11.6558
1 36.605 41.4986 11.5434
1 39.6622 39.7949 9.15879
1 41.0266 42.3811 9.18869
1 41.0898 44.0994 11.5371
1 39.6293 41.6614 11.4456
1 42.5103 39.9998 9.21959
1 43.9956 42.4996 9.22015
1 43.9438 44.1752 11.5651
1 42.5233 41.5604 11.4947
1 45.3764 39.9558 9.15733
1 46.7675 42.5049 9.24651
1 46.898 44.2799 11.5579
1 45.4331 41.7316 11.5634
1 48.3504 40.1121 9.23216
1 49.7344 42.6605 9.22544
1 49.838 44.3855 11.6659
1 48.3844 41.8588 11.5479
1 32.3557 47.0107 9.30543
1 32.4238 48.5333 11.7565
1 33.6988 44.5916 9.31504
1 35.069 47.099 9.40108
1 35.1313 48.729 11.6697
1 33.6345 46.0826 11.6718
1 36.5445 44.684 9.44791
1 38.0261 47.1498 9.42183
1 37.9716 48.7591 11.7615
1 36.6539 46.3866 11.6851
1 39.4452 44.7841 9.29454
1 40.9388 47.2214 9.21826
1 41.0034 49.066 11.69
1 39.6961 46.5206 11.743
1 42.4432 44.8976 9.23424
1 43.9868 47.4186 9.26635
1 43.8498 49.1339 11.7583
1 42.5877 46.562 11.5495
1 45.3569 45.0249 9.19021
1 46.8569 47.5969 9.16137
1 46.7894 49.2521 11.7698
1 45.4199 46.7992 11.7075
1 48.1779 45.0444 9.23709
1 49.6735 47.6386 9.39482
1 49.7146 49.3736 11.8982
1 48.2753 46.8175 11.7001
1 33.5505 49.5184 9.41545
1 36.5751 49.6514 9.40941
1 39.4545 49.6918 9.35174
1 42.3426 49.7936 9.35258
1 45.2973 49.8974 9.4266
1 48.2423 50.0294 9.48478
1 44.5212 34.4016 16.2239
1 50.3651 32.9339 13.6591
1 47.2721 34.2704 16.3011
1 53.0198 33.1092 13.734
1 50.1099 34.3211 16.2157
1 38.4887 37.5382 13.9987
1 38.305 39.0111 16.2684
1 41.2481 37.4745 13.8576
1 41.2412 39.1722 16.2371
1 40.0111 36.7847 16.2788
1 43.0634 35.0692 13.8761
1 44.1417 37.5167 13.9321
1 44.0825 39.1924 16.1161
1 42.8194 36.6385 16.253
1 45.8484 35.057 13.8766
1 47.0979 37.6065 13.8236
1 46.9999 39.2781 16.1676
1 45.6442 36.7926 16.2897
1 48.6176 34.9627 13.9697
1 49.9163 37.8409 13.8063
1 49.9458 39.411 16.2694
1 48.4843 36.8481 16.1845
1 35.4714 42.28 13.9962
1 35.3839 43.9387 16.4256
1 36.9048 39.8997 13.9072
1 38.2404 42.3101 13.7774
1 38.3359 43.9931 16.2973
1 36.9637 41.4781 16.3183
1 39.7802 39.9029 13.9577
1 41.1547 42.3939 13.8089
1 41.1962 44.1593 16.3323
1 39.7392 41.5295 16.1982
1 42.6221 39.9973 13.9164
1 44.0141 42.6191 13.8273
1 44.0222 44.2416 16.3187
1 42.6272 41.6747 16.2971
1 45.529 40.0541 13.8302
1 46.9366 42.6277 13.7907
1 47.0155 44.267 16.2715
1 45.5241 41.7298 16.2422
1 48.486 40.2003 13.888
1 49.9394 42.6473 13.8976
1 49.8543 44.3705 16.3478
1 48.4115 41.8895 16.2499
1 32.4987 47.0995 14.0103
1 32.6274 48.6483 16.3322
1 33.889 44.7502 14.0886
1 35.174 47.1373 14.0636
1 35.2818 48.8783 16.4759
1 33.9817 46.3166 16.4042
1 36.8414 44.7114 14.0738
1 38.096 47.3703 14.0368
1 38.178 49.0157 16.3853
1 36.8101 46.4632 16.3832
1 39.6722 44.913 14.0166
1 41.095 47.4121 13.9778
1 41.0461 49.1135 16.4664
1 39.7253 46.6019 16.2808
1 42.5816 44.9471 13.9382
1 43.9277 47.5274 14.1135
1 44.0367 49.1718 16.5421
1 42.617 46.6922 16.384
1 45.4703 45.0685 13.9359
1 46.7986 47.5655 14.0797
1 46.8646 49.3158 16.4548
1 45.5371 46.6945 16.4121
1 48.3693 45.1625 14.0289
1 49.7339 47.6046 14.0503
1 49.815 49.336 16.5553
1 48.3346 46.8714 16.3542
1 33.7213 49.6752 14.1147
1 36.5641 49.7246 14.1705
1 39.5525 49.7351 14.059
1 42.4148 49.9051 14.1737
1 45.3091 49.9789 14.1618
1 48.2504 50.1361 14.1769
1 44.5387 34.2541 20.9098
1 45.0651 32.9568 18.4295
1 47.3056 34.2601 20.9169
1 47.6655 32.939 18.5891
1 50.2303 34.2602 20.8167
1 38.7115 37.5562 18.6447
1 38.4168 39.0218 21.026
1 41.3344 37.3502 18.6173
1 41.3783 39.131 21.0014
1 40.1167 36.8617 20.9541
1 43.1548 35.1041 18.6258
1 44.3212 37.6558 18.5496
1 44.1373 39.259 20.9457
1 42.9131 36.5661 20.8379
1 45.954 35.3921 18.5586
1 47.241 37.8761 18.4705
1 47.1081 39.321 20.8903
1 45.7452 36.7368 20.9947
1 48.8972 35.3616 18.5686
1 50.1429 37.7689 18.5517
1 49.963 39.41 20.9752
1 48.6092 36.7886 20.8944
1 35.6493 42.3821 18.7356
1 35.5415 43.9315 20.992
1 37.1506 39.8903 18.6724
1 38.4651 42.3536 18.6812
1 38.3969 44.1235 21.0512
1 37.1115 41.5268 21.0262
1 39.8935 39.9938 18.5331
1 41.2509 42.505 18.6327
1 41.297 44.1379 21.0755
1 39.9032 41.5867 21.0364
1 42.7615 40.0066 18.5479
1 44.06 42.5001 18.5831
1 44.1076 44.1548 21.0896
1 42.8098 41.6301 21.0304
1 45.6555 40.1526 18.6465
1 47.0531 42.6237 18.6024
1 47.0456 44.3372 21.1251
1 45.6828 41.8965 21.0324
1 48.4754 40.3006 18.5675
1 49.9879 42.7816 18.6904
1 49.9085 44.3078 21.206
1 48.4956 41.8398 20.9923
1 32.7992 47.2691 18.6926
1 32.6968 48.6788 21.0863
1 34.03 44.7379 18.7503
1 35.523 47.1813 18.8252
1 35.35 49.0414 21.1415
1 34.0447 46.3678 21.0373
1 36.9042 44.7539 18.7038
1 38.2984 47.3815 18.7773
1 38.2113 49.0278 21.1396
1 36.8667 46.5016 21.1054
1 39.7858 44.9797 18.6366
1 41.1021 47.5184 18.7344
1 41.1539 49.1014 21.1415
1 39.7618 46.6324 21.1372
1 42.632 45.0068 18.6575
1 44.0245 47.545 18.8458
1 44.0793 49.2189 21.1992
1 42.6176 46.6109 21.1166
1 45.3875 45.0371 18.7621
1 46.9157 47.4749 18.8206
1 46.9187 49.3125 21.1352
1 45.4688 46.7084 21.1541
1 48.3789 45.1017 18.7021
1 49.7834 47.6831 18.8315
1 49.8705 49.3508 21.289
1 48.3911 46.8377 21.1167
1 33.8544 49.7462 18.7001
1 36.8068 49.7806 18.7638
1 39.5483 49.8808 18.9504
1 42.4563 49.9784 18.8416
1 45.388 49.9871 18.8275
1 48.3564 50.053 18.8288
1 44.5822 34.1519 25.6454
1 44.619 32.8781 23.1642
1 47.3484 34.128 25.6149
1 47.2351 32.8106 23.1929
1 50.2854 34.3113 25.5296
1 38.8331 37.5911 23.3121
1 38.5416 39.0997 25.7311
1 41.5378 37.4488 23.3233
1 41.4722 39.1735 25.77
1 40.1782 36.9527 25.8003
1 43.1658 35.184 23.2722
1 44.3308 37.6504 23.2467
1 44.1863 39.1788 25.6187
1 43.0064 36.5977 25.6783
1 45.892 35.184 23.3347
1 47.2346 37.6866 23.2611
1 47.1235 39.3589 25.6898
1 45.8413 36.8012 25.6456
1 48.7495 35.2703 23.2087
1 50.1094 37.7456 23.2791
1 49.9564 39.2648 25.6711
1 48.6602 36.7869 25.687
1 35.7609 42.3866 23.3403
1 35.6181 43.9421 25.7196
1 37.3046 39.9937 23.3316
1 38.489 42.4247 23.3535
1 38.4292 44.1505 25.7946
1 36.9783 41.5039 25.7647
1 40.0345 39.9371 23.3193
1 41.375 42.4686 23.3731
1 41.3489 44.0941 25.7983
1 39.8847 41.5455 25.7264
1 42.8112 40.1015 23.3109
1 44.2381 42.5579 23.4388
1 44.1608 44.22 25.711
1 42.7002 41.6816 25.6765
1 45.7253 40.1499 23.2508
1 47.198 42.594 23.4935
1 47.0788 44.2582 25.8085
1 45.6493 41.7199 25.7971
1 48.5776 40.1869 23.3646
1 49.9881 42.7121 23.419
1 49.9287 44.3977 25.8607
1 48.6194 41.8061 25.7507
1 32.8203 47.3152 23.4274
1 32.7065 48.7806 25.8487
1 34.3578 44.9449 23.4006
1 35.4222 47.3937 23.4492
1 35.352 48.9591 25.8081
1 34.0196 46.4109 25.8888
1 37.0075 44.8164 23.4515
1 38.3256 47.3935 23.4858
1 38.2495 49.091 25.8998
1 36.8476 46.5561 25.753
1 39.8788 44.9933 23.4768
1 41.2028 47.5617 23.4949
1 41.1339 49.2181 26.008
1 39.7566 46.7197 25.7921
1 42.7329 45.0148 23.4351
1 44.029 47.4667 23.4996
1 44.1495 49.1669 25.9844
1 42.6038 46.725 25.753
1 45.6236 45.0887 23.4628
1 46.9725 47.5943 23.4744
1 46.9647 49.2074 25.9184
1 45.5318 46.6949 25.8403
1 48.4521 45.1224 23.4665
1 49.804 47.6195 23.5032
1 49.8922 49.2442 25.8828
1 48.37 46.7695 25.8041
1 33.8809 49.7609 23.4693
1 36.7972 49.7881 23.5344
1 39.6351 49.881 23.602
1 42.6599 49.9056 23.6369
1 45.4785 50.0676 23.5365
1 48.4564 50.0945 23.5902
1 45.1187 32.8382 27.8769
1 47.725 32.8682 27.8856
1 38.7973 37.5558 28.0805
1 41.5683 37.4626 28.0362
1 43.3758 35.0048 28.0057
1 44.416 37.5969 28.0223
1 46.1419 35.2693 27.9748
1 47.3769 37.7607 28.0165
1 48.9148 35.245 27.9261
1 50.261 37.6612 28.143
1 35.7872 42.2993 28.0186
1 37.2193 39.9764 28.0941
1 38.4428 42.396 28.1088
1 39.9814 39.9428 28.1043
1 41.3017 42.4224 28.0929
1 42.8359 39.9977 28.1765
1 44.1528 42.5138 28.0668
1 45.6454 40.0683 28.0331
1 47.0829 42.5585 28.1848
1 48.6484 40.1459 28.0895
1 50.0394 42.7272 28.1887
1 32.9744 47.2659 28.2336
1 34.3847 44.7952 28.0789
1 35.5999 47.3943 28.209
1 37.0227 44.9325 28.1296
1 38.4149 47.44 28.1423
1 39.8478 44.8509 28.1551
1 41.3343 47.4449 28.242
1 42.7642 45.0039 28.115
1 44.0975 47.4484 28.2202
1 45.6644 45.0959 28.2293
1 47.015 47.5694 28.3376
1 48.4297 45.0612 28.1683
1 49.9024 47.5931 28.2016
1 34.0612 49.8377 28.2249
1 36.8563 49.8738 28.3377
1 39.7634 49.9297 28.3775
1 42.6912 50.0271 28.2909
1 45.5533 50.0585 28.3389
1 48.4169 50.0645 28.384
1 44.6957 34.1646 30.3678
1 47.3475 34.1958 30.2668
1 50.109 34.1586 30.3029
1 38.5773 39.0347 30.4427
1 41.4093 38.9897 30.4725
1 40.088 36.7609 30.3967
1 44.3731 39.0849 30.3589
1 42.9386 36.5692 30.4085
1 47.1649 39.2329 30.4253
1 45.83 36.6478 30.4806
1 50.066 39.3061 30.4408
1 48.6552 36.7136 30.4465
1 35.6165 43.9439 30.4831
1 38.3946 44.0003 30.5144
1 37.0464 41.4376 30.4742
1 41.3446 44.0923 30.4201
1 39.9013 41.5427 30.5262
1 44.2548 44.0988 30.5528
1 42.8614 41.6056 30.4768
1 47.1649 44.169 30.5376
1 45.709 41.7097 30.4514
1 50.0125 44.3237 30.6081
1 48.6998 41.742 30.4414
1 32.9462 48.8137 30.6855
1 35.6001 48.936 30.682
1 34.2392 46.3894 30.5348
1 38.458 49.0556 30.6681
1 36.9696 46.5066 30.4973
1 41.2867 49.0788 30.6346
1 39.8227 46.5303 30.4891
1 44.1278 49.1489 30.6698
1 42.793 46.5416 30.5456
1 47.0265 49.2143 30.6737
1 45.5951 46.7658 30.5983
1 49.8688 49.2509 30.7185
1 48.4624 46.6476 30.6115
1 44.3647 34.3059 35.1272
1 47.858 32.7696 32.54
1 47.3508 33.9961 35.021
1 50.3238 32.7235 32.6373
1 50.0776 34.1461 34.9739
1 38.7965 37.5351 32.8454
1 38.5397 39.0946 35.1894
1 41.5107 37.2146 32.7562
1 41.4743 39.1329 35.1569
1 40.1019 36.8291 35.0758
1 43.3218 35.0374 32.5613
1 44.38 37.5147 32.8445
1 44.3562 39.0284 35.0568
1 42.8206 36.4945 35.055
1 45.8944 34.8699 32.8299
1 47.2621 37.5337 32.7665
1 47.1953 39.065 35.1412
1 45.8706 36.5614 35.0749
1 48.9277 35.1211 32.6897
1 50.1331 37.6645 32.7404
1 50.0424 39.253 35.1379
1 48.6635 36.5765 35.102
1 35.7893 42.3781 32.7798
1 35.5721 43.914 35.1576
1 37.2882 39.9026 32.8261
1 38.533 42.3297 32.8987
1 38.4361 43.9825 35.1527
1 37.0108 41.4802 35.122
1 40.0975 39.8613 32.8709
1 41.5453 42.4823 32.8281
1 41.2826 44.0447 35.2829
1 39.9465 41.5664 35.1065
1 42.8956 39.8727 32.7333
1 44.3242 42.451 32.7772
1 44.1756 44.0394 35.189
1 42.8994 41.4873 35.0954
1 45.7103 39.9754 32.7814
1 47.1145 42.5709 32.9336
1 47.0899 44.1099 35.2482
1 45.7357 41.52 35.2851
1 48.5206 40.12 32.7509
1 50.0118 42.6149 32.8932
1 50.0842 44.1677 35.33
1 48.5921 41.5885 35.2179
1 32.8977 47.2068 32.9113
1 32.886 48.8001 35.3906
1 34.2308 44.945 32.8706
1 35.5573 47.2469 32.8952
1 35.5559 48.8745 35.4206
1 34.1789 46.3681 35.2932
1 36.9881 44.8421 32.737
1 38.4541 47.3821 32.9408
1 38.3906 48.9792 35.3757
1 37.0295 46.473 35.1956
1 39.8664 44.9222 32.9356
1 41.2566 47.5026 32.8759
1 41.2104 49.129 35.301
1 39.951 46.5508 35.3147
1 42.6528 44.9065 32.853
1 44.1584 47.3727 32.9517
1 44.176 49.066 35.3365
1 42.8217 46.5888 35.213
1 45.6831 44.9689 32.891
1 47.0512 47.4863 32.9265
1 47.0188 49.2053 35.3876
1 45.5238 46.5691 35.3358
1 48.5674 45.0565 32.9694
1 49.8758 47.5889 33.0354
1 49.8907 49.1648 35.5389
1 48.4399 46.6588 35.3437
1 33.9732 49.7609 33.034
1 36.8516 49.7919 32.9762
1 39.8082 49.9389 32.9562
1 42.723 49.9212 33.0118
1 45.5752 49.9363 33.0381
1 48.5029 49.9869 33.0928
1 44.3766 34.1723 39.8408
1 47.4882 32.6937 37.5856
1 47.1676 34.1481 39.8482
1 50.1157 32.6896 37.1002
1 50.0611 33.9121 39.6817
1 38.8652 37.6412 37.5362
1 38.4944 39.007 39.8474
1 41.4934 37.3182 37.4327
1 41.4178 38.9898 39.9373
1 40.062 36.707 39.8474
1 43.0919 35.002 37.5106
1 44.33 37.3341 37.376
1 44.2475 39.045 39.8192
1 42.8313 36.5662 39.8857
1 45.8239 34.8746 37.4226
1 47.2723 37.372 37.4706
1 47.0767 38.9623 39.7982
1 45.6729 36.5492 39.8311
1 48.6805 35.0286 37.4272
1 50.0586 37.5299 37.468
1 50.0501 38.984 39.9755
1 48.6679 36.5132 39.8409
1 35.8483 42.4427 37.5936
1 35.6541 43.9982 39.8962
1 37.2801 39.9629 37.556
1 38.5749 42.4392 37.4682
1 38.4479 43.9938 40.0986
1 37.2069 41.541 39.8425
1 40.0574 39.9376 37.5887
1 41.5087 42.4266 37.5462
1 41.3252 44.0792 39.9247
1 40.0123 41.5378 39.808
1 42.9057 39.8889 37.4911
1 44.2747 42.3685 37.5423
1 44.2226 43.9442 39.9558
1 42.7582 41.5808 39.8684
1 45.8032 39.8967 37.5746
1 47.2128 42.4343 37.6375
1 47.0663 44.0011 40.0228
1 45.627 41.5091 39.9217
1 48.6531 39.9277 37.4713
1 50.0329 42.481 37.644
1 49.9181 44.0748 40.1337
1 48.5612 41.5168 39.9617
1 33.0253 47.2896 37.5666
1 32.9512 48.8902 40.0191
1 34.3202 44.8932 37.628
1 35.632 47.2613 37.7687
1 35.5855 48.942 40.1006
1 34.1228 46.4563 40.1251
1 37.0355 44.9257 37.6036
1 38.4515 47.3978 37.6935
1 38.3991 49.0418 40.0948
1 37.1003 46.4364 40.1134
1 39.9272 44.9049 37.5465
1 41.3764 47.3262 37.5703
1 41.347 49.0225 40.1041
1 39.875 46.565 39.9681
1 42.7863 44.8899 37.5474
1 44.1845 47.3332 37.7731
1 44.18 48.9939 40.2142
1 42.7449 46.563 39.9801
1 45.6806 44.8779 37.5933
1 46.9891 47.4783 37.7464
1 46.9482 49.1492 40.1242
1 45.6564 46.4638 40.0955
1 48.5315 44.867 37.58
1 49.9274 47.4568 37.7378
1 49.883 49.1228 40.1474
1 48.4807 46.4932 40.0996
1 34.1544 49.8629 37.6873
1 37.022 49.8227 37.8051
1 39.8919 49.8124 37.7175
1 42.6945 49.8388 37.7932
1 45.5207 49.8209 37.725
1 48.4118 50.0652 37.9001
1 44.8628 32.7063 42.139
1 47.4011 32.6663 42.1931
1 38.7872 37.7212 42.136
1 41.533 37.4395 42.3386
1 43.1461 34.8831 42.2275
1 44.3253 37.4347 42.2197
1 45.8379 34.9934 42.2444
1 47.2327 37.394 42.2399
1 48.7003 34.9852 42.161
1 50.1383 37.3909 42.2392
1 35.8998 42.4447 42.2253
1 37.3311 39.9935 42.4211
1 38.6523 42.3418 42.2775
1 40.1298 39.9626 42.2124
1 41.3807 42.49 42.2548
1 42.9286 39.8524 42.2239
1 44.343 42.3626 42.3649
1 45.7124 39.8685 42.2204
1 47.2258 42.306 42.4051
1 48.5943 39.8997 42.1855
1 49.9915 42.4135 42.4286
1 32.7916 47.2426 42.4168
1 34.4235 44.8362 42.2812
1 35.4868 47.2795 42.4237
1 37.091 44.792 42.4331
1 38.4236 47.3902 42.4976
1 40.0033 44.915 42.3059
1 41.3548 47.4117 42.3934
1 42.9157 44.8695 42.4004
1 44.2066 47.2913 42.421
1 45.66 44.8057 42.3805
1 47.0266 47.5168 42.4664
1 48.5339 44.9275 42.5017
1 49.8184 47.4375 42.5134
1 34.126 49.8231 42.4407
1 36.9829 49.8415 42.43
1 39.8582 49.8466 42.4315
1 42.7372 49.8871 42.5286
1 45.6169 49.9129 42.5843
1 48.4828 49.9642 42.5996
1 44.3555 34.1858 44.5973
1 47.1303 34.0288 44.589
1 50.0407 33.9553 44.4928
1 38.6052 39.1913 44.6837
1 41.4526 39.1255 44.7392
1 40.0263 36.788 44.5007
1 44.1967 39.0959 44.7482
1 42.8302 36.575 44.6203
1 47.143 39.2043 44.6725
1 45.6761 36.6136 44.6153
1 49.9528 39.031 44.5736
1 48.5357 36.544 44.5832
1 35.5506 43.9283 44.7716
1 38.4 44.029 44.7051
1 37.1175 41.5283 44.718
1 41.3033 44.1397 44.7225
1 39.919 41.6049 44.724
1 44.1999 44.1252 44.8446
1 42.7676 41.6223 44.6237
1 47.0483 44.0363 44.7549
1 45.6806 41.5917 44.7204
1 49.8547 44.0187 44.8263
1 48.5699 41.5267 44.8097
1 32.9722 48.6077 44.7671
1 35.638 48.9058 44.8349
1 34.1333 46.2612 44.7193
1 38.5381 49.0302 44.9169
1 36.9424 46.4428 44.7904
1 41.3343 49.0825 44.8398
1 39.9116 46.5488 44.7668
1 44.1454 49.0361 44.8918
1 42.7665 46.5704 44.8156
1 46.9769 49.0003 44.9653
1 45.5607 46.5072 44.7752
1 49.8064 49.0614 45.0046
1 48.444 46.4814 44.8404
1 44.4361 34.0347 49.1078
1 45.0306 32.783 46.6808
1 47.264 34.057 49.268
1 47.5061 32.5654 47.0718
1 50.1002 33.9405 49.293
1 38.6454 37.5586 46.9024
1 38.3839 38.921 49.2906
1 41.3748 37.2458 46.9686
1 41.3122 38.9537 49.4898
1 39.958 36.7966 49.2624
1 43.1442 34.9548 46.8791
1 44.1938 37.4698 46.9886
1 44.1665 39.066 49.3824
1 42.768 36.4359 49.2081
1 45.963 35.1232 46.9428
1 47.2501 37.525 46.9998
1 47.0211 38.9027 49.4528
1 45.6227 36.4882 49.339
1 48.892 34.911 46.9068
1 50.0626 37.4185 46.9625
1 49.8514 39.0338 49.41
1 48.5168 36.4841 49.2964
1 35.7014 42.3449 47.0294
1 35.4171 43.946 49.5236
1 37.2102 39.9515 47.0707
1 38.4573 42.3983 47.1233
1 38.2779 43.9646 49.519
1 36.894 41.3798 49.4317
1 39.965 39.8325 47.1075
1 41.3428 42.4851 47.0224
1 41.2136 43.9471 49.4431
1 39.796 41.3692 49.4648
1 42.8342 39.9333 47.0301
1 44.251 42.3645 47.0854
1 44.0575 43.9529 49.4984
1 42.6838 41.487 49.4702
1 45.7057 39.8747 47.0464
1 47.1024 42.3597 47.1139
1 47.0002 43.9849 49.4923
1 45.6462 41.5267 49.4844
1 48.5302 39.9033 47.1944
1 49.8891 42.4292 47.1668
1 49.8976 44.0202 49.5707
1 48.3977 41.5259 49.5296
1 32.7827 47.2505 47.1584
1 32.7942 48.8007 49.4947
1 34.2098 44.7441 47.085
1 35.4412 47.1733 47.0903
1 35.4357 48.7659 49.4496
1 33.9771 46.3683 49.4443
1 36.9234 44.7755 47.0908
1 38.3868 47.2403 47.1491
1 38.4334 48.9001 49.6058
1 36.8936 46.4659 49.4563
1 39.7971 44.8618 47.169
1 41.2515 47.3856 47.2283
1 41.2935 48.8587 49.629
1 39.7652 46.4653 49.5313
1 42.6787 44.8756 47.1375
1 44.1646 47.3916 47.2184
1 43.9772 48.941 49.6965
1 42.7092 46.4254 49.53
1 45.5948 44.8907 47.1568
1 47.0445 47.3994 47.2601
1 46.9847 49.0021 49.7048
1 45.5881 46.5363 49.5847
1 48.4439 44.9062 47.2092
1 49.8659 47.4356 47.3691
1 49.6999 48.9812 49.7037
1 48.3169 46.4718 49.608
1 33.9262 49.817 47.1495
1 36.9114 49.7716 47.213
1 39.8236 49.7601 47.3631
1 42.6992 49.9113 47.275
1 45.4303 49.8687 47.4201
1 48.2033 49.9625 47.3904
1 44.2686 33.94 53.9533
1 47.4908 32.4744 51.5205
1 47.0199 33.8014 54.0819
1 50.1222 32.6137 51.6411
1 49.9909 33.7915 54.0755
1 38.7012 37.3622 51.6676
1 38.3362 38.9031 54.0606
1 41.3909 37.2101 51.7521
1 41.2883 38.9491 54.0669
1 39.8308 36.6627 54.1126
1 43.083 34.9534 51.5328
1 44.2269 37.3441 51.6851
1 44.0479 38.9096 54.0961
1 42.6059 36.2834 54.0184
1 45.7597 34.5956 51.5607
1 47.1077 37.2981 51.6656
1 46.9011 38.8095 54.1015
1 45.5758 36.3081 53.8631
1 48.5268 34.8139 51.7803
1 49.8766 37.3498 51.7262
1 49.8236 38.9552 54.1436
1 48.4284 36.3684 54.1462
1 35.574 42.2293 51.7931
1 35.3619 43.8572 54.1936
1 37.1057 39.7704 51.7295
1 38.4179 42.1916 51.77
1 38.1592 43.9198 54.1501
1 36.868 41.3878 54.1115
1 39.822 39.7866 51.729
1 41.2804 42.2959 51.8354
1 41.2402 43.9453 54.2988
1 39.7168 41.4455 54.1459
1 42.7472 39.7435 51.7459
1 44.1208 42.3294 51.9242
1 44.0129 43.9961 54.3443
1 42.6605 41.3964 54.2729
1 45.5369 39.7965 51.7822
1 46.908 42.4189 51.8527
1 46.8959 43.9835 54.1411
1 45.4113 41.4448 54.2373
1 48.3874 39.7625 51.7889
1 49.723 42.3946 51.9829
1 49.7582 43.8473 54.3324
1 48.2751 41.4007 54.2494
1 32.8054 47.1932 51.8915
1 32.6618 48.7472 54.1709
1 34.1391 44.6801 51.7931
1 35.4605 47.1207 51.7745
1 35.322 48.903 54.2603
1 33.9017 46.376 54.1201
1 36.8585 44.6705 51.846
1 38.2788 47.1469 51.8933
1 38.2875 48.859 54.2431
1 36.7119 46.4222 54.1898
1 39.8445 44.73 51.848
1 41.1481 47.2539 51.9598
1 41.1916 48.8861 54.3334
1 39.7014 46.3568 54.2178
1 42.7137 44.7397 51.9335
1 44.0369 47.3343 51.9588
1 43.9591 49.0027 54.3549
1 42.5516 46.4529 54.3731
1 45.5738 44.8917 51.8096
1 46.9875 47.3908 52.0968
1 46.8959 49.0818 54.5099
1 45.4987 46.5349 54.3092
1 48.3711 44.8835 51.9529
1 49.8182 47.3654 52.1293
1 49.7918 48.9941 54.5275
1 48.2563 46.4644 54.393
1 33.9744 49.7493 51.8771
1 36.8571 49.6499 51.9518
1 39.717 49.7252 52.0048
1 42.575 49.8449 51.9679
1 45.4556 49.8369 52.0751
1 48.3696 49.9227 52.1334
1 44.1133 33.9316 58.7192
1 44.348 32.578 56.3144
1 46.879 33.8141 58.6997
1 47.0003 32.3412 56.3814
1 49.7364 33.8421 58.8324
1 38.6417 37.4547 56.4739
1 38.2247 39.0306 58.7674
1 41.307 37.2393 56.4325
1 41.2603 38.8646 58.8677
1 39.6023 36.607 58.782
1 42.8515 34.8238 56.4534
1 44.1109 37.248 56.3652
1 44.0652 38.9693 58.8171
1 42.6234 36.312 58.767
1 45.6513 34.8434 56.3398
1 46.9756 37.226 56.3886
1 46.9483 38.8988 58.864
1 45.3526 36.4838 58.7571
1 48.4547 34.7224 56.3965
1 49.8136 37.2481 56.5393
1 49.7592 38.8856 58.8704
1 48.2614 36.3685 58.8193
1 35.5253 42.4045 56.4291
1 35.3199 43.7734 58.784
1 36.9968 39.7866 56.3208
1 38.2557 42.2629 56.4334
1 38.1754 43.8662 58.8079
1 36.7489 41.3887 58.657
1 39.8888 39.8319 56.4147
1 41.1712 42.4098 56.5828
1 41.1238 43.9166 58.9991
1 39.726 41.3082 58.8299
1 42.6711 39.7351 56.5609
1 44.0476 42.236 56.7509
1 43.936 43.8134 58.9911
1 42.5345 41.4126 58.9944
1 45.4613 39.7524 56.5313
1 46.9024 42.2427 56.5916
1 46.8484 43.8872 58.9396
1 45.4575 41.3652 58.9245
1 48.3448 39.7606 56.5229
1 49.7283 42.2422 56.6057
1 49.731 43.917 59.0759
1 48.2765 41.4277 58.9149
1 32.5717 47.1626 56.5304
1 32.5784 48.5398 59.0372
1 34.0759 44.7048 56.549
1 35.2378 47.2047 56.5009
1 35.2322 48.8218 58.9685
1 33.839 46.2085 58.8714
1 36.8296 44.7237 56.4622
1 38.1256 47.2388 56.5107
1 38.1121 48.7879 59.0362
1 36.6147 46.3333 58.8117
1 39.7584 44.8111 56.5017
1 41.1158 47.3043 56.7104
1 41.0208 48.8913 59.1164
1 39.5955 46.2967 58.847
1 42.6139 44.7757 56.7081
1 43.9754 47.2459 56.7144
1 43.8668 48.8859 59.1471
1 42.4602 46.407 59.0896
1 45.4537 44.7873 56.5989
1 46.7985 47.2288 56.6851
1 46.7623 48.7983 59.1051
1 45.3485 46.4789 59.0514
1 48.4208 44.8209 56.6421
1 49.7085 47.2896 56.7515
1 49.6439 48.9783 59.1856
1 48.2848 46.3238 59.081
1 33.7454 49.7166 56.5848
1 36.7473 49.7125 56.7024
1 39.5673 49.6653 56.6299
1 42.4828 49.8112 56.7786
1 45.3856 49.7772 56.8038
1 48.2849 49.8538 56.9034
1 44.0332 33.9623 63.385
1 47.0082 32.4031 60.9766
1 46.8415 33.8052 63.4347
1 49.6236 32.3418 61.2373
1 49.6235 33.7168 63.5242
1 38.3512 37.3455 61.1182
1 38.2328 38.8609 63.4863
1 41.1209 37.057 61.0783
1 41.0971 38.7081 63.5146
1 39.6498 36.4612 63.4028
1 42.736 34.6524 61.1058
1 44.0649 37.1447 61.2146
1 43.9726 38.9233 63.5621
1 42.4626 36.2928 63.3693
1 45.4996 34.6588 61.0963
1 46.8778 37.1596 61.1556
1 46.8334 38.8408 63.5282
1 45.4339 36.2471 63.4932
1 48.2617 34.7648 61.1235
1 49.8013 37.1215 61.2657
1 49.8034 38.8052 63.6149
1 48.3827 36.273 63.5524
1 35.458 42.2372 61.1464
1 35.2572 43.6565 63.5418
1 36.9444 39.7751 61.1892
1 38.1501 42.1641 61.1369
1 38.1174 43.6345 63.551
1 36.6613 41.2248 63.4582
1 39.7889 39.6793 61.0463
1 41.0214 42.233 61.2311
1 40.9635 43.8355 63.5736
1 39.6242 41.2779 63.5326
1 42.5643 39.6388 61.2087
1 43.9323 42.1264 61.3278
1 43.9297 43.91 63.6979
1 42.4141 41.2261 63.6296
1 45.503 39.6219 61.2048
1 46.739 42.2267 61.285
1 46.7129 43.9125 63.7017
1 45.4394 41.3415 63.5995
1 48.3331 39.703 61.2764
1 49.6853 42.2664 61.368
1 49.6386 43.8595 63.7691
1 48.22 41.3999 63.5647
1 32.4764 47.0738 61.4148
1 32.569 48.5236 63.7307
1 34.0075 44.6666 61.1788
1 35.1503 47.1199 61.2577
1 35.2151 48.6959 63.5992
1 33.8231 46.1261 63.769
1 36.653 44.709 61.1813
1 38.0868 47.1688 61.2455
1 38.0666 48.6921 63.7189
1 36.571 46.2393 63.5559
1 39.4881 44.6829 61.3329
1 40.9739 47.1961 61.4127
1 40.9196 48.9 63.8017
1 39.59 46.2714 63.7
1 42.5519 44.8052 61.3152
1 44.0016 47.1728 61.4703
1 43.8286 48.8705 63.9553
1 42.4373 46.3953 63.7493
1 45.4196 44.7323 61.3783
1 46.818 47.1386 61.451
1 46.6928 48.8908 63.9285
1 45.3446 46.3861 63.7839
1 48.1879 44.6823 61.3543
1 49.6034 47.2996 61.4667
1 49.6 48.9322 63.9216
1 48.241 46.2988 63.7811
1 33.7094 49.5824 61.2772
1 36.6791 49.6312 61.3729
1 39.5737 49.6933 61.4414
1 42.4055 49.6353 61.4883
1 45.2803 49.7025 61.5409
1 48.16 49.7407 61.6496
1 43.9954 33.9523 68.2052
1 47.2094 32.4351 65.7447
1 46.7825 33.6305 68.2015
1 49.8775 32.3672 66.05
1 49.7046 33.7184 68.3434
1 38.486 37.1631 65.8442
1 38.2257 38.7319 68.2467
1 41.2376 37.056 65.8039
1 41.1156 38.6529 68.2582
1 39.7745 36.4605 68.1198
1 42.8533 34.7007 65.8367
1 44.0665 37.2204 65.8685
1 43.914 38.6593 68.277
1 42.4716 36.1786 68.126
1 45.5575 34.5807 65.8315
1 46.8969 37.1673 65.837
1 46.721 38.7776 68.2601
1 45.3796 36.2114 68.169
1 48.3275 34.7115 65.8293
1 49.6918 37.1628 65.9367
1 49.6039 38.76 68.2984
1 48.1769 36.1401 68.2855
1 35.5302 42.096 65.9195
1 35.3866 43.6287 68.4145
1 36.9569 39.6772 65.8773
1 38.2776 42.103 65.8566
1 38.1345 43.7149 68.2243
1 36.7144 41.1501 68.3138
1 39.7824 39.5917 65.8642
1 41.0883 42.102 65.9613
1 40.9958 43.7084 68.3397
1 39.5777 41.2549 68.2983
1 42.5762 39.5535 65.8997
1 43.9474 42.1975 65.9397
1 43.7904 43.7426 68.3086
1 42.556 41.2499 68.237
1 45.3932 39.6747 65.948
1 46.8642 42.2246 66.0793
1 46.7732 43.8133 68.586
1 45.3547 41.3407 68.3478
1 48.2739 39.6626 65.9414
1 49.6659 42.1895 66.062
1 49.5652 43.8226 68.4586
1 48.2211 41.3061 68.3169
1 32.5525 47.0112 66.0647
1 32.4542 48.4457 68.4588
1 34.0714 44.5815 65.9958
1 35.2139 47.0881 65.9234
1 35.1054 48.5854 68.3611
1 33.8672 45.9548 68.3904
1 36.7089 44.5467 65.8578
1 38.0402 47.019 65.9688
1 37.9298 48.762 68.4158
1 36.6991 46.1511 68.2863
1 39.6077 44.6376 65.9946
1 40.9034 47.2962 66.0994
1 40.8979 48.8079 68.4958
1 39.4878 46.2621 68.347
1 42.3742 44.6918 65.9739
1 43.8526 47.1968 66.0983
1 43.6995 48.741 68.5397
1 42.3585 46.2252 68.4141
1 45.3974 44.6605 66.1253
1 46.6587 47.2199 66.2124
1 46.5158 48.8985 68.6449
1 45.2239 46.412 68.4754
1 48.1651 44.7759 66.1746
1 49.4776 47.2115 66.1932
1 49.5332 48.8724 68.6227
1 48.1782 46.3871 68.5579
1 33.6815 49.6233 66.1108
1 36.4935 49.5771 66.0873
1 39.4533 49.6474 66.1471
1 42.3335 49.6995 66.1864
1 45.1545 49.7247 66.2481
1 48.1209 49.7769 66.2506
1 44.2639 33.6283 72.9151
1 44.6857 32.3968 70.2634
1 46.9916 33.6097 72.9049
1 47.2757 32.1775 70.4124
1 49.8485 33.6109 73.0955
1 38.5477 37.1555 70.5114
1 38.3248 38.7056 72.943
1 41.1707 36.9067 70.5553
1 41.1776 38.5881 72.9194
1 39.7128 36.3364 72.8765
1 42.865 34.5102 70.7155
1 44.0296 37.0071 70.6332
1 43.9993 38.7241 72.9671
1 42.5628 36.0813 72.9393
1 45.6212 34.7232 70.5701
1 46.949 37.2411 70.6744
1 46.8558 38.7134 73.0601
1 45.4467 36.2554 72.9717
1 48.3418 34.6688 70.6058
1 49.7537 37.0328 70.6978
1 49.6459 38.7483 73.113
1 48.3102 36.1647 73.0361
1 35.4902 42.0587 70.7465
1 35.2399 43.5601 73.1079
1 37.0348 39.6141 70.6927
1 38.2837 42.0311 70.644
1 38.0435 43.7186 73.1485
1 36.918 41.141 72.9125
1 39.7356 39.5483 70.5739
1 41.1823 42.0094 70.5807
1 41.0037 43.7138 72.9959
1 39.6442 41.1859 72.9017
1 42.6231 39.5362 70.5888
1 43.9476 42.0712 70.6429
1 43.9259 43.7891 73.0583
1 42.5264 41.2136 72.9243
1 45.3525 39.592 70.6179
1 46.8545 42.0978 70.8675
1 46.6806 43.8271 73.1523
1 45.3579 41.2441 72.9938
1 48.2807 39.6244 70.755
1 49.6347 42.1494 70.7596
1 49.5258 43.8322 73.296
1 48.1766 41.3047 73.2027
1 32.4348 46.8096 70.7629
1 32.4636 48.245 73.2228
1 34.0259 44.382 70.73
1 35.1289 46.9336 70.7796
1 35.0545 48.5974 73.1354
1 33.7312 45.939 73.0437
1 36.7583 44.4759 70.7321
1 38.0569 47.0048 70.8011
1 37.9163 48.6203 73.1616
1 36.4995 46.1162 73.0975
1 39.561 44.5257 70.6907
1 40.9355 47.0524 70.7991
1 40.6864 48.6956 73.1304
1 39.4578 46.1253 73.1365
1 42.4162 44.527 70.6763
1 43.7456 47.051 70.766
1 43.6268 48.7403 73.1806
1 42.3778 46.2134 73.1257
1 45.3613 44.6024 70.8047
1 46.6009 47.1527 70.8145
1 46.5994 48.8183 73.2261
1 45.2719 46.335 73.1435
1 48.2647 44.6324 70.8244
1 49.5665 47.1795 70.9017
1 49.4859 48.7411 73.3086
1 48.0916 46.3764 73.1822
1 33.5067 49.3376 70.7666
1 36.4599 49.4082 70.8301
1 39.3345 49.5252 70.8058
1 42.2438 49.5882 70.8839
1 45.1358 49.6014 71.0274
1 48.0162 49.6239 71.0602
1 44.2434 33.8493 77.6032
1 44.6864 32.3279 75.2752
1 46.917 33.5637 77.6085
1 47.2603 32.0611 75.2134
1 49.8241 33.7141 77.8606
1 38.4767 37.0753 75.1585
1 38.1427 38.5289 77.5161
1 41.1897 36.8848 75.2417
1 41.0367 38.5686 77.6104
1 39.7617 36.3144 77.6019
1 42.9582 34.5591 75.1758
1 44.0673 37.0311 75.2354
1 43.8909 38.6386 77.6857
1 42.5991 36.0526 77.573
1 45.7486 34.7319 75.2642
1 46.9947 37.2144 75.3194
1 46.7657 38.6966 77.7728
1 45.4787 36.2081 77.6847
1 48.5933 34.6552 75.4093
1 49.9227 37.1287 75.4652
1 49.7169 38.7523 77.8403
1 48.2852 36.1646 77.6621
1 35.502 41.8749 75.2581
1 35.1284 43.3397 77.6454
1 36.9495 39.4709 75.2199
1 38.3101 41.8653 75.2683
1 38.0883 43.4894 77.7782
1 36.7225 40.9669 77.6095
1 39.7567 39.4676 75.2516