5538
Atoms. Timestep: 90000
1 42.8902 36.5032 5.29577
1 47.1288 35.7008 7.56174
1 45.6328 36.4327 5.23338
1 48.6833 33.5784 7.27872
1 50.1137 34.1876 5.06871
1 37.1418 38.4719 7.55853
1 35.7254 39.2641 5.21539
1 39.8567 38.1976 7.47257
1 39.8992 41.41 5.11281
1 38.4217 38.9145 5.17092
1 41.4729 35.7521 7.73791
1 42.7358 38.1415 7.57037
1 42.7429 41.4312 5.01376
1 41.2927 38.8766 5.11838
1 44.1927 35.6361 7.71913
1 45.5703 38.1673 7.46373
1 45.6204 41.4284 5.01675
1 44.1805 38.9118 5.17039
1 48.4137 36.3725 5.19655
1 49.8487 40.7201 7.46312
1 49.9455 39.0276 5.19858
1 47.0845 38.8696 5.10745
1 34.1053 43.1459 7.44411
1 32.8004 44.0852 5.23766
1 35.5426 40.6748 7.43522
1 36.9237 43.1561 7.46293
1 35.4903 44.0549 5.17224
1 34.1778 41.6276 5.15512
1 38.411 40.7836 7.4735
1 39.7724 43.234 7.45344
1 38.3311 44.0968 5.0852
1 37.0988 41.5439 5.15611
1 41.3042 40.5782 7.42162
1 42.5685 43.1474 7.42952
1 42.7274 46.568 4.95449
1 41.2937 44.0607 5.09635
1 44.1246 40.6106 7.44803
1 45.5214 43.1259 7.42927
1 46.9574 44.02 4.99195
1 44.0857 43.9979 5.07248
1 46.9627 40.5937 7.42528
1 51.1521 43.1847 7.393
1 49.8048 43.9769 5.02427
1 48.4713 41.4987 5.13196
1 31.3354 48.0823 7.49872
1 32.4651 49.043 5.12797
1 32.7151 45.646 7.59832
1 33.9631 48.1244 7.55739
1 35.261 49.0415 5.13563
1 31.4159 46.5945 5.34929
1 35.5679 45.7024 7.47975
1 36.7716 48.3397 7.40722
1 38.2823 49.0775 4.92299
1 34.0422 46.4309 5.24387
1 38.3475 45.7582 7.40382
1 39.6464 48.2703 7.272
1 41.2147 49.0738 4.87083
1 36.9258 46.5427 5.11023
1 41.168 45.6499 7.40338
1 42.5138 48.2291 7.27242
1 43.6999 50.7329 7.19939
1 39.7751 46.5942 5.08513
1 43.9612 45.6973 7.26017
1 45.2826 48.1674 7.32749
1 48.0871 48.188 7.26329
1 44.0358 49.0471 4.87734
1 48.2934 43.1085 7.39672
1 49.6439 45.6959 7.19145
1 50.9456 48.2771 7.1931
1 46.8 45.7143 7.25205
1 32.3933 50.7032 7.31631
1 35.0344 50.7351 7.3548
1 38.0598 50.723 7.33267
1 40.8924 50.7769 7.24616
1 46.5285 50.5669 7.16056
1 49.4329 50.7208 7.24995
1 44.2832 34.3533 12.308
1 48.4281 38.1287 7.49241
1 47.1122 34.1732 12.219
1 50.0477 35.814 7.52028
1 49.9089 34.2043 12.2666
1 38.4443 37.5034 9.83968
1 38.1987 39.0437 12.1801
1 41.2 37.2614 9.93771
1 41.0994 39.0974 12.1784
1 39.6955 36.8198 12.2436
1 42.7856 34.9895 10.0234
1 44.1559 37.3411 9.93907
1 44.0269 39.0455 12.2334
1 42.6023 36.4845 12.2279
1 45.6203 34.9282 9.97646
1 47.0687 37.3164 9.81687
1 46.8924 39.0523 12.2458
1 45.6859 36.5822 12.2571
1 48.5581 34.8582 9.87135
1 49.8786 37.3749 9.8633
1 49.9027 39.1199 12.2409
1 48.4971 36.6407 12.2269
1 35.4353 42.3512 9.86693
1 35.3482 43.9492 12.1833
1 36.9375 39.8914 9.81386
1 38.2827 42.3521 9.86143
1 38.1164 43.994 12.2068
1 36.7036 41.424 12.2197
1 39.8412 39.793 9.80832
1 41.171 42.2721 9.80287
1 40.9586 44.0161 12.1408
1 39.6573 41.4947 12.2448
1 42.6584 39.8113 9.81632
1 44.016 42.2554 9.75771
1 43.8893 44.0651 12.1239
1 42.5107 41.5244 12.2107
1 45.5249 39.7703 9.78564
1 46.9152 42.3198 9.83341
1 46.7509 44.0679 12.0951
1 45.3726 41.6055 12.1394
1 48.4437 39.866 9.86074
1 49.7865 42.3434 9.83521
1 49.6307 44.1255 12.096
1 48.2444 41.5967 12.2183
1 32.5315 47.2508 9.83599
1 32.4534 48.714 12.0876
1 34.0607 44.6255 9.83008
1 35.2961 47.2444 9.86766
1 35.0002 48.9417 12.1479
1 33.8438 46.2869 12.1839
1 36.8288 44.723 9.80993
1 38.0707 47.3458 9.73218
1 37.929 49.0242 12.0633
1 36.6666 46.5229 12.1912
1 39.5835 44.9088 9.84152
1 40.8719 47.3218 9.58065
1 40.8398 49.0577 11.9669
1 39.4864 46.5294 12.1297
1 42.383 44.7497 9.75078
1 43.7206 47.2259 9.6251
1 43.7542 49.0091 11.971
1 42.3455 46.5425 12.011
1 45.2892 44.7141 9.6505
1 46.6553 47.2939 9.6608
1 46.6142 49.1552 11.939
1 45.217 46.4912 11.9703
1 48.22 44.882 9.66896
1 49.5174 47.3781 9.52549
1 49.5147 49.1581 11.8862
1 48.1376 46.5615 11.9659
1 33.5581 49.8713 9.67604
1 36.4821 49.7768 9.71795
1 39.357 49.8605 9.69586
1 42.2763 49.9116 9.61477
1 45.1131 49.834 9.57236
1 48.0243 49.8383 9.56305
1 44.1355 34.1032 16.8708
1 50.0431 32.7773 14.656
1 46.9231 34.0595 17.0579
1 52.7548 32.7619 14.6853
1 49.9063 34.1504 17.0082
1 38.5531 37.5201 14.5675
1 38.1385 39.0033 16.8551
1 41.2062 37.3475 14.542
1 41.0449 39.0536 16.9542
1 39.659 36.8413 16.9132
1 42.9547 35.0858 14.6028
1 44.1187 37.3769 14.5661
1 44.0164 38.9557 16.8401
1 42.5939 36.4645 16.9787
1 45.6716 34.7757 14.5917
1 46.992 37.4055 14.5348
1 46.9367 39.0491 16.8475
1 45.544 36.5146 16.9013
1 48.4244 34.9389 14.5454
1 49.8138 37.4599 14.5777
1 49.7225 39.1385 16.9723
1 48.5127 36.5048 16.9094
1 35.5828 42.4043 14.6467
1 35.1431 43.9383 16.9008
1 36.858 39.911 14.5975
1 38.1847 42.3197 14.5264
1 37.9742 43.9376 16.8087
1 36.665 41.443 16.9439
1 39.7327 39.8672 14.6167
1 41.1297 42.3764 14.5146
1 40.8593 44.0148 16.8387
1 39.5069 41.5071 16.9356
1 42.5962 39.8641 14.5063
1 44.0018 42.4101 14.5143
1 43.8144 44.0749 16.8172
1 42.4662 41.545 16.9262
1 45.4416 39.9209 14.5975
1 46.7727 42.442 14.4506
1 46.6922 44.1419 16.7003
1 45.4064 41.4994 16.931
1 48.2596 40.0107 14.5627
1 49.6486 42.5311 14.5241
1 49.5072 44.2356 16.7855
1 48.219 41.6681 16.9072
1 32.4652 47.3521 14.4118
1 32.5278 48.792 16.8133
1 33.8961 44.9094 14.4838
1 35.1919 47.3441 14.5164
1 35.1633 48.9792 16.8962
1 33.6445 46.3636 16.8424
1 36.6626 44.8803 14.497
1 38.0628 47.4063 14.542
1 37.9911 49.0599 16.8261
1 36.4729 46.4053 16.8658
1 39.5158 44.9433 14.5409
1 40.9503 47.4211 14.3801
1 40.8107 48.9805 16.7803
1 39.3599 46.4575 16.8026
1 42.403 44.9056 14.4085
1 43.8516 47.474 14.3644
1 43.6544 49.1195 16.8099
1 42.2442 46.5778 16.7438
1 45.3053 45.0012 14.409
1 46.6705 47.5995 14.3012
1 46.4525 49.1599 16.6331
1 45.1327 46.6143 16.6935
1 48.1755 45.036 14.413
1 49.4991 47.4623 14.3232
1 49.4516 49.2235 16.5836
1 47.9456 46.7172 16.7927
1 33.5723 49.7775 14.4496
1 36.5273 49.9804 14.4373
1 39.4273 49.9337 14.3856
1 42.2075 49.8409 14.4466
1 45.085 49.9712 14.4138
1 48.0663 50.0462 14.1958
1 44.3252 34.1117 21.6584
1 44.5546 32.6775 19.2591
1 47.1598 33.8543 21.6131
1 47.1647 32.5756 19.3585
1 49.8347 34.13 21.6046
1 38.3638 37.6251 19.1664
1 38.0887 38.9872 21.6068
1 41.1495 37.2815 19.2832
1 40.9932 39.0483 21.6556
1 39.5523 36.7883 21.6949
1 42.988 34.9639 19.3647
1 44.0313 37.4121 19.3442
1 43.8995 38.9704 21.7288
1 42.5233 36.5679 21.6763
1 45.6796 35.0261 19.3515
1 47.0824 37.5432 19.1779
1 46.864 39.066 21.5284
1 45.5196 36.5619 21.6614
1 48.4388 35.0784 19.4216
1 49.8387 37.5777 19.3685
1 49.6225 39.1561 21.6536
1 48.2928 36.6639 21.7011
1 35.3545 42.4122 19.1945
1 35.1518 44.0083 21.7053
1 36.7654 39.9467 19.3143
1 38.069 42.3134 19.1564
1 38.0122 43.9741 21.5452
1 36.6403 41.5194 21.6696
1 39.6111 39.8662 19.3176
1 41.0578 42.3314 19.2653
1 40.9196 44.0144 21.5853
1 39.4588 41.6086 21.6205
1 42.5231 39.8689 19.2347
1 43.8871 42.3804 19.2457
1 43.7644 43.9998 21.5793
1 42.4442 41.4528 21.578
1 45.4213 39.942 19.2067
1 46.7986 42.4709 19.1709
1 46.6067 44.1708 21.4312
1 45.2685 41.5148 21.5195
1 48.2569 40.0735 19.2679
1 49.6443 42.5513 19.0959
1 49.5111 44.1263 21.429
1 48.0834 41.6629 21.5589
1 32.4891 47.371 19.1301
1 32.3222 48.6837 21.6466
1 33.7863 44.8371 19.2539
1 35.0421 47.2775 19.2958
1 34.987 48.9809 21.5787
1 33.6599 46.3625 21.5813
1 36.5765 44.8192 19.2318
1 37.8786 47.371 19.1517
1 37.7896 48.9381 21.5146
1 36.5293 46.4382 21.6105
1 39.512 44.8884 19.1314
1 40.693 47.3407 19.1251
1 40.7769 49.0272 21.529
1 39.3389 46.5074 21.4861
1 42.3943 44.8827 19.1505
1 43.5819 47.3344 19.059
1 43.667 49.1552 21.4474
1 42.2797 46.5059 21.5085
1 45.2721 44.9055 19.1209
1 46.4617 47.4953 18.9956
1 46.5663 49.1345 21.3506
1 45.0976 46.5983 21.4379
1 48.0897 45.0328 19.0944
1 49.478 47.5145 19.05
1 49.3834 49.2257 21.3981
1 48.0447 46.7271 21.3836
1 33.5503 49.8631 19.3132
1 36.3787 49.8709 19.308
1 39.2698 49.9338 19.2091
1 42.102 49.8743 19.164
1 45.0153 49.8606 19.0182
1 47.8761 49.9771 19.0121
1 44.1619 34.1437 26.377
1 44.5192 32.7905 24.1252
1 46.917 34.012 26.398
1 47.1359 32.6041 23.917
1 49.7477 33.9258 26.3415
1 38.3341 37.5206 23.923
1 38.1005 39.0631 26.4182
1 41.1506 37.2371 23.9272
1 41.0662 38.9618 26.2526
1 39.6326 36.6862 26.3356
1 42.7829 34.8625 24.0142
1 43.9878 37.3336 23.9963
1 43.8589 39.052 26.2736
1 42.4926 36.4481 26.2717
1 45.7131 35.0013 23.9798
1 46.8788 37.5341 24.0127
1 46.7984 39.1327 26.2955
1 45.5024 36.5851 26.4184
1 48.5149 34.9562 24.0579
1 49.7817 37.4366 24.0274
1 49.6239 39.0879 26.2869
1 48.3311 36.4812 26.3554
1 35.269 42.3329 24.0029
1 35.1533 43.9366 26.3554
1 36.7754 39.9357 23.8235
1 38.0573 42.4037 23.9779
1 38.0067 43.9809 26.341
1 36.5951 41.4497 26.2742
1 39.5772 39.789 24.0168
1 40.9665 42.3662 23.9331
1 40.865 44.0443 26.2799
1 39.4309 41.5985 26.332
1 42.4457 39.8771 23.9841
1 43.7578 42.4345 23.8408
1 43.7294 44.0744 26.1896
1 42.2749 41.5294 26.2553
1 45.3714 39.9468 23.9576
1 46.6606 42.5355 23.9432
1 46.5841 44.109 26.2204
1 45.2469 41.5525 26.208
1 48.1083 40.0374 23.8688
1 49.597 42.5783 23.8578
1 49.4777 44.2375 26.2168
1 48.0814 41.6065 26.2485
1 32.3974 47.294 23.938
1 32.3059 48.7537 26.3067
1 33.8957 44.7524 24.0707
1 35.0338 47.3388 23.9057
1 34.9672 48.9198 26.2545
1 33.6011 46.3599 26.3288
1 36.6355 44.8178 23.8944
1 37.9364 47.3808 23.8669
1 37.788 49.025 26.1728
1 36.3908 46.4283 26.2133
1 39.4769 44.8975 23.8857
1 40.8701 47.4428 23.8204
1 40.7692 49.0446 26.1349
1 39.3667 46.5437 26.1735
1 42.3795 44.9859 23.8938
1 43.7328 47.5431 23.8169
1 43.6028 49.181 26.1669
1 42.2515 46.6055 26.247
1 45.1734 45.0022 23.861
1 46.6324 47.5206 23.6869
1 46.4356 49.0879 26.1186
1 44.9844 46.6047 26.1907
1 48.1199 45.0605 23.8651
1 49.5169 47.5962 23.7633
1 49.3836 49.1239 26.0352
1 47.976 46.6535 26.1302
1 33.4777 49.7581 23.9352
1 36.4304 49.8729 23.8269
1 39.3228 49.8543 23.7869
1 42.1714 49.942 23.8645
1 45.1203 49.9118 23.8048
1 47.9529 50.0039 23.7911
1 44.2147 32.7406 28.7562
1 46.904 32.6118 28.6125
1 38.1756 37.4877 28.7224
1 40.9586 37.2115 28.6885
1 42.6831 34.9133 28.6817
1 43.8912 37.4432 28.6188
1 45.4812 34.9727 28.6989
1 46.9372 37.5453 28.7714
1 48.3459 35.006 28.8429
1 49.6833 37.4736 28.6292
1 35.3379 42.4095 28.6316
1 36.792 39.9652 28.6409
1 37.9929 42.3577 28.717
1 39.6144 39.8278 28.6662
1 40.7909 42.346 28.7033
1 42.4365 39.862 28.6423
1 43.7259 42.4324 28.5619
1 45.269 39.9531 28.7628
1 46.5337 42.5562 28.5246
1 48.0583 40.0614 28.5261
1 49.4617 42.6068 28.584
1 32.2939 47.3986 28.7757
1 33.8284 44.8152 28.6017
1 34.9855 47.2889 28.6325
1 36.5306 44.8861 28.6545
1 37.9417 47.3781 28.5904
1 39.448 44.9142 28.6292
1 40.8117 47.4161 28.4971
1 42.2414 44.9354 28.548
1 43.7513 47.4942 28.5663
1 45.1922 44.9859 28.6413
1 46.5946 47.4813 28.4773
1 48.0662 45.1123 28.5414
1 49.4428 47.5192 28.4461
1 33.5034 49.8715 28.5562
1 36.4098 49.8489 28.5091
1 39.2165 49.9716 28.4751
1 42.1518 50.0028 28.5509
1 45.0489 49.8958 28.441
1 47.9281 49.9866 28.4579
1 43.993 34.1428 31.0704
1 46.8893 34.014 30.9932
1 49.6963 33.9138 31.156
1 38.0011 39.0036 31.0258
1 40.8709 38.9351 30.9916
1 39.4878 36.6408 30.9875
1 43.7834 39.0227 31.0157
1 42.4541 36.6009 31.0455
1 46.7031 39.1414 31.035
1 45.2125 36.5823 31.0349
1 49.4808 39.0958 30.9762
1 48.1216 36.5633 31.0355
1 34.921 43.8763 30.957
1 37.856 43.9363 31.0358
1 36.5445 41.3797 31.0299
1 40.9143 44.0662 31.0097
1 39.4518 41.5104 31.0843
1 43.6741 44.1196 30.8496
1 42.3028 41.5636 31.0215
1 46.4927 44.1283 30.9208
1 45.1096 41.6279 30.9788
1 49.4355 44.1574 30.8355
1 48.0332 41.6048 30.9516
1 32.2952 48.7508 31.1637
1 34.9713 48.8942 30.9723
1 33.6212 46.4405 31.0048
1 37.81 49.0414 30.8488
1 36.3273 46.4395 30.9273
1 40.6416 49.0995 30.7722
1 39.2261 46.5024 30.8932
1 43.5484 49.1585 30.857
1 42.115 46.6266 30.8624
1 46.461 49.1249 30.7546
1 45.0601 46.7085 30.9574
1 49.4443 49.2027 30.7795
1 47.9986 46.5828 30.8801
1 44.0049 34.049 35.6746
1 47.0985 32.5439 33.3886
1 46.9223 33.9318 35.7768
1 49.6415 32.6204 33.6367
1 49.6297 33.9464 35.846
1 38.1065 37.3583 33.3255
1 38.008 38.8672 35.712
1 40.9216 37.1428 33.4109
1 40.9647 38.7824 35.6647
1 39.4509 36.6328 35.6737
1 42.6758 34.8832 33.4348
1 43.8202 37.3155 33.5039
1 43.865 38.7994 35.7705
1 42.2948 36.2856 35.8199
1 45.3584 34.691 33.3932
1 46.7779 37.2437 33.3089
1 46.6847 38.9387 35.7214
1 45.2946 36.3069 35.6923
1 48.332 34.9245 33.39
1 49.5854 37.5307 33.3945
1 49.4979 39.1633 35.7966
1 48.1237 36.4563 35.732
1 35.2919 42.3574 33.3742
1 35.1459 43.8458 35.7191
1 36.8367 39.9312 33.4356
1 38.0008 42.2779 33.3908
1 38.0105 43.8361 35.6698
1 36.5794 41.4197 35.685
1 39.5628 39.6406 33.4138
1 40.8965 42.3369 33.2787
1 40.7742 43.9032 35.6185
1 39.5003 41.3416 35.6813
1 42.3484 39.7011 33.3049
1 43.6557 42.354 33.3346
1 43.6287 43.9588 35.6667
1 42.3141 41.3522 35.6094
1 45.1965 39.8401 33.3397
1 46.6312 42.3103 33.309
1 46.5799 43.9802 35.5908
1 45.1539 41.3918 35.6221
1 48.0738 39.8442 33.2685
1 49.4299 42.4323 33.32
1 49.5263 44.098 35.56
1 48.0141 41.587 35.7178
1 32.3618 47.1984 33.4305
1 32.4892 48.64 35.7698
1 33.8051 44.8615 33.3665
1 34.9885 47.3222 33.4349
1 35.1334 48.9533 35.6872
1 33.6408 46.1938 35.6956
1 36.4497 44.7643 33.3435
1 37.8695 47.3113 33.2749
1 37.9224 48.8963 35.5354
1 36.5332 46.3726 35.6457
1 39.3647 44.7789 33.2529
1 40.7617 47.354 33.2966
1 40.7767 48.9776 35.5638
1 39.3783 46.4074 35.6552
1 42.2939 44.859 33.2885
1 43.6213 47.3769 33.2908
1 43.6493 49.0185 35.5429
1 42.3216 46.4487 35.6347
1 45.1852 44.8538 33.2197
1 46.5719 47.457 33.2053
1 46.5321 49.0684 35.4466
1 45.1688 46.5136 35.6353
1 47.9406 44.9125 33.19
1 49.5055 47.5117 33.1021
1 49.4651 49.145 35.4038
1 48.0525 46.5492 35.5047
1 33.518 49.7791 33.3872
1 36.3996 49.8185 33.2439
1 39.2412 49.7435 33.1296
1 42.1876 49.8843 33.2142
1 45.1029 49.9443 33.0543
1 47.9833 49.9765 33.0268
1 43.8723 34.0272 40.4874
1 46.8234 32.6419 38.1517
1 46.7504 33.9075 40.5085
1 49.4542 32.5537 38.1329
1 49.6514 33.9652 40.5065
1 38.2629 37.2479 38.0796
1 37.9685 38.6864 40.4014
1 40.9477 37.1903 38.0883
1 40.8511 38.8016 40.3957
1 39.4916 36.5109 40.386
1 42.6303 34.8408 38.0891
1 43.8202 37.2252 38.0409
1 43.8006 38.7421 40.4778
1 42.2722 36.2128 40.4534
1 45.312 34.7067 38.0159
1 46.6536 37.3285 38.0922
1 46.5813 38.9335 40.3914
1 45.297 36.3444 40.3953
1 48.2344 35.0047 38.1152
1 49.4782 37.4778 38.0827
1 49.5308 38.9658 40.4785
1 48.1523 36.502 40.5532
1 35.2928 42.1887 38.0451
1 35.1645 43.6108 40.3965
1 36.7608 39.6798 38.1347
1 37.9418 42.1464 38.0215
1 37.945 43.6631 40.309
1 36.6698 41.1267 40.5397
1 39.5008 39.7281 38.0612
1 40.9177 42.223 38.042
1 40.8791 43.7573 40.3485
1 39.4576 41.2129 40.4052
1 42.3508 39.744 38.0051
1 43.7843 42.2456 37.9824
1 43.8713 43.8498 40.2866
1 42.4761 41.2543 40.434
1 45.1851 39.7598 38.0552
1 46.5459 42.3058 38.0195
1 46.6233 43.9579 40.3228
1 45.2538 41.3691 40.4297
1 48.0488 39.9196 38.1063
1 49.5284 42.4134 38.0089
1 49.5092 44.0585 40.3047
1 48.1523 41.4855 40.4292
1 32.4873 47.2486 38.0762
1 32.3467 48.6386 40.4935
1 33.8083 44.671 38.0919
1 35.1797 47.2345 37.9009
1 35.0437 48.7558 40.3887
1 33.6453 46.2269 40.3331
1 36.5234 44.6347 38.0517
1 38.0189 47.077 37.9608
1 37.9838 48.7689 40.2108
1 36.4808 46.1913 40.3214
1 39.3992 44.6793 38.0401
1 40.9068 47.2338 37.9016
1 40.9234 48.6991 40.3306
1 39.4566 46.1362 40.2777
1 42.1982 44.7025 37.9507
1 43.6811 47.3051 37.9403
1 43.7012 48.9174 40.2082
1 42.3684 46.2707 40.2844
1 45.1632 44.8175 37.9239
1 46.5674 47.4137 37.9374
1 46.5919 49.0026 40.1978
1 45.2741 46.4104 40.3073
1 48.0218 44.8798 37.881
1 49.3702 47.4928 37.838
1 49.5199 49.1145 40.1227
1 48.0541 46.5418 40.1963
1 33.5736 49.7333 38.1606
1 36.5281 49.7044 37.9646
1 39.4059 49.7379 37.9754
1 42.3029 49.8161 37.9011
1 45.1321 49.8511 37.7477
1 47.9829 49.9864 37.7075
1 44.4145 32.6231 42.7364
1 47.0347 32.4682 42.8503
1 38.3213 37.2424 42.8833
1 40.9653 36.9447 42.7532
1 42.7641 34.7081 42.9191
1 43.9235 37.2374 42.8246
1 45.4672 34.9353 42.7906
1 46.7798 37.3728 42.8413
1 48.3097 34.9303 42.8713
1 49.7258 37.3307 42.9252
1 35.4558 42.2106 42.7691
1 36.8136 39.62 42.8238
1 38.1369 42.119 42.6673
1 39.5361 39.5396 42.8059
1 41.0442 42.1301 42.8323
1 42.3646 39.5665 42.778
1 43.7672 42.1407 42.7592
1 45.3524 39.7612 42.8057
1 46.5936 42.3353 42.6871
1 48.2091 39.8901 42.8112
1 49.5008 42.4124 42.6436
1 32.4891 47.1067 42.8092
1 33.9034 44.7002 42.7289
1 35.1566 47.1424 42.7786
1 36.5048 44.6884 42.7411
1 38.0416 47.1024 42.6116
1 39.4613 44.6456 42.6621
1 40.8895 47.0396 42.7378
1 42.294 44.6336 42.6276
1 43.7832 47.2475 42.5576
1 45.1293 44.7947 42.5993
1 46.6106 47.3795 42.5308
1 47.9968 44.7984 42.5986
1 49.483 47.4233 42.5039
1 33.5763 49.5964 42.8233
1 36.5242 49.5291 42.6875
1 39.4333 49.5461 42.5283
1 42.2962 49.8045 42.5553
1 45.1745 49.7531 42.5188
1 48.0137 49.8988 42.3743
1 44.0511 33.9827 45.1947
1 46.9201 33.9026 45.1474
1 49.7348 33.9953 45.4956
1 38.163 38.7662 45.2538
1 41.0671 38.889 45.0976
1 39.7451 36.5391 45.1734
1 43.8665 38.8331 45.1591
1 42.5264 36.3556 45.1088
1 46.8173 38.9975 45.2321
1 45.4071 36.5459 45.1902
1 49.672 38.9987 45.1647
1 48.3013 36.518 45.2685
1 35.2195 43.784 45.118
1 38.028 43.7937 44.9745
1 36.7597 41.2395 45.143
1 40.9307 43.8123 45.0491
1 39.5426 41.2892 45.1775
1 43.9988 44.0001 45.0202
1 42.5499 41.3213 45.2047
1 46.7226 44.0644 45.0411
1 45.3838 41.442 45.0629
1 49.5637 44.1305 44.8901
1 48.2117 41.54 45.0781
1 32.554 48.5479 45.2355
1 35.1634 48.721 45.1052
1 33.7905 46.169 45.1551
1 38.0772 48.7314 45.0835
1 36.5359 46.2974 45.0866
1 40.8979 48.7543 44.9121
1 39.4336 46.2667 44.9491
1 43.7609 48.9169 44.9457
1 42.3887 46.3067 45.0007
1 46.6942 49.0831 44.7877
1 45.2262 46.5173 45.0037
1 49.5486 49.1292 44.9299
1 48.1285 46.6019 44.9167
1 44.2178 34.0505 49.8165
1 44.1865 32.5981 47.5511
1 46.9984 33.989 49.9408
1 46.8251 32.553 47.4957
1 49.7935 33.8992 50.182
1 38.4545 37.2932 47.6194
1 38.1886 38.8544 49.9639
1 41.089 37.1689 47.4859
1 41.1118 38.8683 49.8995
1 39.7177 36.644 49.929
1 42.7197 34.8097 47.5022
1 43.927 37.2809 47.6363
1 43.9733 38.8992 49.8413
1 42.4582 36.2687 49.9829
1 45.4886 34.8882 47.4933
1 46.803 37.4775 47.5667
1 46.938 39.0124 49.8805
1 45.6416 36.4098 49.9349
1 48.2576 34.9702 47.6184
1 49.7771 37.5276 47.5862
1 49.8591 39.0801 49.8332
1 48.4775 36.6012 49.8743
1 35.4565 42.2573 47.5358
1 35.3403 43.6693 49.8642
1 36.8564 39.8688 47.6346
1 38.216 42.1969 47.4235
1 38.1881 43.693 49.7479
1 36.6958 41.299 49.9611
1 39.6021 39.6655 47.5697
1 41.144 42.2725 47.4602
1 40.987 43.7963 49.8888
1 39.6916 41.2569 49.8627
1 42.4626 39.7326 47.5104
1 43.996 42.3782 47.375
1 43.9701 43.9152 49.9815
1 42.5324 41.4026 49.874
1 45.3124 39.8156 47.5154
1 46.8574 42.2945 47.4384
1 46.8264 43.9115 49.8122
1 45.4963 41.3961 49.7782
1 48.337 39.8728 47.505
1 49.6154 42.5482 47.41
1 49.7794 44.0373 49.6936
1 48.3346 41.5606 49.7981
1 32.6048 46.968 47.5366
1 32.564 48.5625 49.8525
1 34.0215 44.6283 47.5608
1 35.3112 47.1351 47.4843
1 35.1738 48.8047 49.8902
1 33.8752 46.1197 49.9151
1 36.7965 44.692 47.4671
1 38.0902 47.1365 47.4595
1 38.1451 48.8022 49.8838
1 36.6707 46.2679 49.7829
1 39.6422 44.7103 47.4982
1 40.9997 47.221 47.3927
1 41.029 48.8114 49.8264
1 39.6109 46.2395 49.7745
1 42.4747 44.6825 47.4498
1 43.8767 47.21 47.3883
1 43.9098 48.842 49.6814
1 42.4853 46.3569 49.9086
1 45.3839 44.8559 47.3966
1 46.7513 47.3124 47.2597
1 46.6583 48.9979 49.638
1 45.456 46.4184 49.6776
1 48.201 44.9366 47.3509
1 49.634 47.5177 47.4005
1 49.6578 49.0337 49.6717
1 48.377 46.5029 49.7936
1 33.6826 49.4993 47.5555
1 36.6407 49.5703 47.4537
1 39.5432 49.5512 47.4345
1 42.351 49.6761 47.2947
1 45.1822 49.6818 47.2848
1 48.1769 49.8942 47.1494
1 44.3228 33.913 54.6819
1 47.3099 32.554 52.2593
1 47.1003 33.8506 54.6248
1 49.9519 32.4132 52.5817
1 49.9782 33.9251 54.7483
1 38.4605 37.2724 52.3533
1 38.3832 38.8229 54.6112
1 41.2092 37.0695 52.2213
1 41.3311 38.7153 54.6084
1 39.8847 36.4493 54.7107
1 42.8811 34.809 52.2674
1 44.1462 37.1543 52.1553
1 44.0872 38.8325 54.6061
1 42.7759 36.2239 54.5775
1 45.5474 34.6226 52.3195
1 46.9241 37.2525 52.299
1 46.971 38.8721 54.5771
1 45.625 36.3479 54.5542
1 48.4886 34.9594 52.4251
1 49.9512 37.4729 52.2339
1 49.9163 39.0188 54.6534
1 48.5492 36.4917 54.6451
1 35.4484 42.0327 52.3646
1 35.3477 43.5012 54.6898
1 36.9619 39.5958 52.2955
1 38.2348 42.0785 52.2443
1 38.1261 43.6859 54.5577
1 36.8738 41.0991 54.641
1 39.8652 39.497 52.2884
1 41.115 42.1423 52.278
1 41.1473 43.7512 54.5947
1 39.8203 41.2767 54.6277
1 42.5548 39.5734 52.2554
1 43.9871 42.1879 52.2524
1 44.013 43.8138 54.5077
1 42.6935 41.3287 54.6074
1 45.5172 39.7491 52.2033
1 46.9203 42.1765 52.198
1 46.8895 43.9115 54.5388
1 45.5355 41.388 54.5413
1 48.4444 39.7932 52.1685
1 49.6985 42.3951 52.1398
1 49.8126 43.9584 54.4987
1 48.3168 41.4049 54.5139
1 32.6701 46.9196 52.2577
1 32.7849 48.2829 54.6919
1 34.1782 44.5552 52.3109
1 35.3203 47.0279 52.2182
1 35.3792 48.5955 54.6097
1 33.9777 45.9416 54.6929
1 36.7017 44.4726 52.1615
1 38.2229 47.0476 52.2086
1 38.2217 48.6809 54.5336
1 36.7304 46.0187 54.5578
1 39.6251 44.5458 52.2824
1 40.967 47.0826 52.1112
1 41.1747 48.619 54.4637
1 39.6193 46.1425 54.5876
1 42.4789 44.6324 52.2588
1 43.9751 47.0872 52.1077
1 44.0855 48.8083 54.4565
1 42.5868 46.214 54.495
1 45.5629 44.656 52.1298
1 46.8796 47.2917 51.9953
1 46.8716 48.9203 54.3035
1 45.5191 46.4075 54.4512
1 48.3444 44.7465 52.1221
1 49.7335 47.4591 52.1391
1 49.787 49.043 54.4569
1 48.383 46.486 54.4554
1 33.6868 49.455 52.331
1 36.6824 49.4726 52.2197
1 39.5989 49.5248 52.2085
1 42.5087 49.597 52.0125
1 45.2754 49.7117 51.968
1 48.1822 49.8406 51.9704
1 44.5302 33.8532 59.503
1 44.8654 32.4934 57.035
1 47.2895 33.8245 59.3421
1 47.5782 32.421 57.0007
1 50.1484 33.855 59.3496
1 38.6593 37.1837 57.0434
1 38.4339 38.4896 59.3939
1 41.3851 36.9274 56.9663
1 41.327 38.6417 59.2229
1 40.0747 36.281 59.3286
1 43.22 34.6459 57.1171
1 44.1787 37.1629 56.8274
1 44.3146 38.7284 59.2814
1 42.9483 36.2395 59.3654
1 45.923 34.8473 56.9552
1 47.1079 37.3128 56.9784
1 47.2129 38.8295 59.3676
1 45.7505 36.3434 59.4201
1 48.7602 34.812 56.9813
1 49.9619 37.3053 57.0203
1 50.0865 38.8965 59.4196
1 48.649 36.2672 59.4366
1 35.6349 41.95 57.0132
1 35.4442 43.4595 59.4768
1 37.217 39.6366 57.0495
1 38.3165 42.0512 56.9864
1 38.2552 43.5913 59.4202
1 36.9622 41.0646 59.4317
1 39.9269 39.5003 56.9146
1 41.2604 42.0652 56.8712
1 41.1427 43.5391 59.2449
1 39.6674 41.0001 59.2706
1 42.7503 39.5468 56.9878
1 44.1752 42.1607 57.0057
1 44.1003 43.7397 59.3325
1 42.6572 41.2151 59.2146
1 45.6153 39.7019 56.9787
1 46.9821 42.155 56.9186
1 46.9818 43.764 59.2981
1 45.5916 41.2765 59.2973
1 48.5673 39.7625 56.9801
1 49.8475 42.28 56.9122
1 49.8835 43.9522 59.1211
1 48.4872 41.3757 59.2434
1 32.8108 46.8679 57.1253
1 32.7569 48.4556 59.4249
1 34.0851 44.4054 57.0459
1 35.4168 46.9142 56.93
1 35.4211 48.4685 59.4258
1 33.9914 45.958 59.4883
1 36.7512 44.4538 57.0267
1 38.2714 46.9584 56.945
1 38.3091 48.5765 59.2155
1 36.8466 46.0625 59.2922
1 39.6538 44.5147 56.8753
1 41.1295 46.9791 56.8503
1 41.2845 48.6043 59.1266
1 39.7815 46.0594 59.1884
1 42.5814 44.5655 56.9543
1 43.9654 47.1237 56.8672
1 44.1829 48.7725 59.1601
1 42.6819 46.1505 59.2598
1 45.4574 44.7582 56.8197
1 46.8694 47.2669 56.7931
1 47.0458 48.8689 59.0517
1 45.5524 46.2693 59.1839
1 48.3584 44.8338 56.8547
1 49.8306 47.2963 56.757
1 49.9046 48.9302 59.0916
1 48.4514 46.4178 59.2211
1 33.9415 49.3517 57.0353
1 36.8235 49.4115 56.9403
1 39.6452 49.4138 56.8573
1 42.6228 49.5486 56.7981
1 45.5301 49.6783 56.7065
1 48.3888 49.8244 56.6712
1 44.5518 33.8544 64.1274
1 47.547 32.4343 61.7035
1 47.4639 33.7576 64.1532
1 50.3253 32.3464 61.8611
1 50.4417 33.8127 64.1011
1 38.7035 37.1618 61.7091
1 38.4856 38.5972 64.1566
1 41.4893 36.8232 61.745
1 41.4279 38.6795 64.1107
1 40.0932 36.4411 64.1052
1 43.1831 34.6269 61.7742
1 44.3331 37.1695 61.7395
1 44.4384 38.735 64.0429
1 42.9031 36.1614 64.1171
1 45.8974 34.5841 61.771
1 47.2825 37.1379 61.6613
1 47.3389 38.6931 64.044
1 45.9499 36.2131 64.0508
1 48.8355 34.7429 61.7926
1 50.2317 37.2003 61.7504
1 50.1875 38.9548 64.0024
1 48.8184 36.2318 64.0889
1 35.7031 42.0168 61.8642
1 35.6146 43.6314 64.1307
1 37.2089 39.6063 61.7931
1 38.5087 41.9726 61.7349
1 38.3935 43.5322 64.1385
1 37.053 41.0249 64.167
1 39.955 39.4476 61.7582
1 41.284 41.8889 61.6446
1 41.3327 43.5326 63.9729
1 39.898 41.0807 64.1377
1 42.7685 39.4695 61.5456
1 44.0886 41.9783 61.6644
1 44.1771 43.6894 63.9917
1 42.8134 41.1849 64.0264
1 45.7122 39.6103 61.7291
1 47.0603 42.1153 61.6131
1 47.1945 43.7585 63.9911
1 45.8282 41.2724 64.0351
1 48.5754 39.7305 61.738
1 50.012 42.2549 61.7079
1 49.9762 43.9282 63.9761
1 48.6281 41.364 63.9777
1 32.7903 47.0195 61.7704
1 32.7608 48.3664 64.1052
1 34.2435 44.5055 61.8619
1 35.5022 46.9891 61.7783
1 35.5715 48.5801 64.072
1 34.1885 46.0386 64.0929
1 36.9218 44.4682 61.7379
1 38.4011 46.9656 61.6196
1 38.4893 48.5639 63.9928
1 37.03 46.0468 64.03
1 39.7768 44.4065 61.6763
1 41.2549 46.9164 61.4546
1 41.2999 48.593 63.7379
1 39.922 46.0801 63.9621
1 42.6402 44.439 61.6447
1 44.1278 46.9841 61.6173
1 44.1364 48.732 63.8442
1 42.785 46.1448 63.9083
1 45.6571 44.5174 61.6196
1 47.0797 47.0442 61.5109
1 47.0526 48.8367 63.7847
1 45.7117 46.1829 63.8677
1 48.4802 44.6021 61.5934
1 49.9987 47.1959 61.4367
1 49.8822 48.8351 63.8437
1 48.574 46.3515 63.8948
1 34.011 49.4402 61.7959
1 37.0224 49.4436 61.6787
1 39.8674 49.4634 61.5645
1 42.6796 49.4886 61.3996
1 45.6029 49.6044 61.4284
1 48.4262 49.588 61.3516
1 44.7091 33.6799 69.0084
1 47.7395 32.3104 66.5823
1 47.4564 33.6955 68.8619
1 50.3501 32.386 66.475
1 50.2888 33.7414 68.8509
1 38.8314 37.2042 66.5466
1 38.6303 38.6585 68.9271
1 41.6431 36.8988 66.6252
1 41.4615 38.5808 68.8143
1 40.0535 36.3784 68.865
1 43.3177 34.5347 66.554
1 44.4551 36.8974 66.3791
1 44.4338 38.6121 68.7272
1 43.0267 36.0294 68.9066
1 46.0083 34.4355 66.4807
1 47.2054 37.0192 66.3767
1 47.2901 38.6761 68.739
1 45.9358 36.1122 68.7336
1 48.8204 34.7001 66.485
1 50.108 37.2181 66.3461
1 50.0576 38.8377 68.7083
1 48.8179 36.3117 68.7576
1 35.8018 41.9936 66.5158
1 35.5992 43.5202 68.7624
1 37.4206 39.5604 66.5514
1 38.5496 41.9637 66.4819
1 38.3959 43.7033 68.7487
1 37.0713 41.1864 68.7951
1 40.1136 39.4704 66.4833
1 41.3705 41.9355 66.4393
1 41.3461 43.6702 68.687
1 39.9386 41.1739 68.7768
1 42.9647 39.3647 66.3556
1 44.2791 41.8995 66.3543
1 44.2043 43.6524 68.6578
1 42.8376 41.1801 68.7762
1 45.825 39.5223 66.2834
1 47.1081 42.0907 66.3969
1 47.0984 43.8421 68.6472
1 45.765 41.1411 68.7157
1 48.6476 39.6085 66.3654
1 50.0028 42.1044 66.2913
1 49.9729 43.7651 68.7295
1 48.6017 41.2516 68.7495
1 32.7982 46.8491 66.5492
1 32.8436 48.4116 68.8037
1 34.2087 44.41 66.4687
1 35.5329 46.9337 66.3427
1 35.4666 48.621 68.7481
1 34.1206 45.9228 68.771
1 36.9188 44.444 66.461
1 38.4724 46.948 66.3227
1 38.4167 48.5252 68.6394
1 36.8813 46.1021 68.7276
1 39.9472 44.4452 66.3288
1 41.3352 47.0132 66.2212
1 41.2235 48.6481 68.5695
1 39.8964 46.1633 68.5708
1 42.7009 44.4465 66.3499
1 44.2091 47.0514 66.1522
1 44.1798 48.7878 68.522
1 42.7371 46.2352 68.6153
1 45.6555 44.5309 66.2731
1 47.0154 47.1581 66.2317
1 46.9768 48.7413 68.4812
1 45.6202 46.1835 68.624
1 48.5473 44.7221 66.3371
1 50.0167 47.1751 66.156
1 49.9388 48.7614 68.4828
1 48.5113 46.3683 68.6131
1 33.9539 49.3518 66.4332
1 36.9151 49.3714 66.3622
1 39.8238 49.4131 66.237
1 42.7164 49.4622 66.1963
1 45.5561 49.5627 66.1572
1 48.5145 49.5765 66.2328
1 44.6644 33.7055 73.6978
1 44.709 32.3493 71.4153
1 47.5575 33.5337 73.6348
1 47.2751 32.3721 71.1142
1 50.3059 33.8609 73.5679
1 38.6924 37.0429 71.2373
1 38.6782 38.5946 73.5304
1 41.4584 36.8645 71.203
1 41.5508 38.6337 73.6594
1 40.066 36.3683 73.4278
1 43.2685 34.5756 71.2527
1 44.4542 37.0215 71.1894
1 44.4035 38.6492 73.5059
1 42.9978 36.0879 73.5392
1 46.0354 34.6807 71.3202
1 47.3255 37.0917 71.1845
1 47.2846 38.7973 73.526
1 45.8751 36.2093 73.6672
1 48.7921 34.7518 71.2044
1 50.2336 37.171 71.125
1 50.0971 38.7338 73.4627
1 48.6907 36.2051 73.5621
1 35.8864 41.9723 71.2636
1 35.674 43.515 73.4307
1 37.4043 39.5119 71.1903
1 38.6055 41.956 71.1236
1 38.5099 43.5447 73.4464
1 37.0994 41.1088 73.57
1 40.158 39.4008 71.1943
1 41.5112 41.9099 71.109
1 41.382 43.6006 73.4861
1 39.9801 41.1026 73.5055
1 42.9393 39.337 71.1604
1 44.3338 41.9794 71.0225
1 44.223 43.66 73.4115
1 42.9703 41.0733 73.4708
1 45.8206 39.4759 71.1035
1 47.2376 42.0282 71.0596
1 47.1678 43.7212 73.4004
1 45.8396 41.2197 73.494
1 48.6733 39.5897 71.1603
1 49.9823 42.0679 71.0351
1 49.955 43.729 73.4432
1 48.6295 41.2314 73.46
1 32.8738 47.0188 71.1162
1 32.8666 48.4125 73.5864
1 34.3383 44.4496 71.1997
1 35.5461 46.9505 71.1038
1 35.4922 48.5534 73.3787
1 34.2015 46.0962 73.4511
1 37.022 44.4929 71.0947
1 38.4098 46.7989 71.0175
1 38.4016 48.5408 73.3722
1 37.0635 46.0337 73.4216
1 39.9765 44.405 71.082
1 41.3182 47.0219 70.9175
1 41.2958 48.6089 73.2301
1 39.8623 46.0531 73.3244
1 42.831 44.4374 71.0614
1 44.1732 47.0004 70.9497
1 44.2187 48.6456 73.3108
1 42.7026 46.0821 73.2714
1 45.6894 44.47 70.9928
1 47.029 47.1126 70.8749
1 46.941 48.6902 73.2038
1 45.6483 46.1008 73.255
1 48.5013 44.6034 71.0256
1 49.9404 47.1068 70.8398
1 49.9067 48.7679 73.2503
1 48.4615 46.2894 73.3274
1 34.0085 49.455 71.1277
1 37.0412 49.3457 70.9798
1 39.8063 49.3091 71.0668
1 42.783 49.3961 70.9081
1 45.6126 49.5768 70.8553
1 48.4678 49.5849 70.8471
1 44.6622 33.8855 78.3974
1 45.0443 32.4435 76.067
1 47.4641 33.7879 78.4515
1 47.5713 32.3657 76.0423
1 50.3834 33.9836 78.2975
1 38.9767 37.0211 75.9619
1 38.6497 38.6492 78.2223
1 41.6109 36.7873 75.9436
1 41.5236 38.6081 78.283
1 40.1506 36.3784 78.3096
1 43.3001 34.5834 76.0338
1 44.4714 37.0688 75.9791
1 44.372 38.6764 78.3918
1 42.9833 36.1201 78.3465
1 46.1166 34.7705 76.1016
1 47.3493 37.191 76.0015
1 47.2376 38.8872 78.3163
1 45.826 36.3327 78.4424
1 48.9091 34.7703 75.9173
1 50.179 37.2201 75.8913
1 50.0951 39.0037 78.259
1 48.819 36.4297 78.33
1 35.767 41.9315 75.8416
1 35.682 43.5181 78.1775
1 37.4303 39.4822 75.8604
1 38.4874 41.9217 75.7722
1 38.4319 43.6444 78.1284