ITEM: TIMESTEP
100000
ITEM: NUMBER OF ATOMS
5538
ITEM: BOX BOUNDS pp pp pp
0.382303 99.6177
-0.0776302 100.078
3.89152 96.1085
ITEM: ATOMS id type x y z c_csym c_2[1] c_2[2] c_2[3] c_2[4] c_2[5] c_2[6] 
4 1 48.6194 33.4731 6.82897 50.1682 218677 -135279 978199 125941 3319.77 -34610.7 
8 1 39.8086 37.992 6.91273 12.9152 903551 776597 914432 -349531 -61140.2 -126516 
1 1 42.9126 36.1945 4.61022 21.1291 1.21706e+06 975017 1.93022e+06 -73914.2 5948.93 -275657 
11 1 41.5032 35.619 6.92995 42.8185 1.07661e+06 585746 1.75818e+06 -530522 101137 -89613 
12 1 42.6355 37.9457 6.91409 0.322874 -65320.3 127237 255655 -182559 -449964 47909 
3 1 45.6622 36.2076 4.51577 12.8504 750163 840637 1.26423e+06 62580.8 -185323 -76205.5 
15 1 44.2433 35.4885 7.01679 21.9787 793281 13150 861542 -173096 -169761 -248400 
16 1 45.531 37.8782 6.88866 0.56578 -319937 290267 103186 -129524 -282972 374444 
19 1 48.4293 36.3818 4.54101 5.5372 386286 593489 924024 222022 -78208.5 179754 
2 1 47.0778 35.4855 6.94136 12.5501 231622 -252971 916617 288319 -93549.3 -118345 
78 1 48.2991 38.0959 6.96209 0.288909 -650538 -426506 -67134.4 256801 14108.2 210776 
221 1 49.3731 48.9721 16.4532 7.54945 112749 188831 69603.2 113829 118086 -41545.3 
6 1 36.9998 38.2792 6.75453 32.959 481267 164036 931694 -449925 397530 -135551 
7 1 35.7546 39.1389 4.49087 36.7355 140430 95012.4 975363 -478206 55569 -90901.6 
25 1 35.49 40.6435 6.82132 20.3955 439127 363640 663010 -119763 19212.8 120839 
10 1 38.4247 38.8603 4.50812 13.2847 346954 252943 692809 -275591 157319 125770 
29 1 38.4244 40.5203 6.87324 0.365631 -427777 -555069 -649837 -285052 41979.4 -129755 
14 1 41.3573 38.6105 4.52672 6.28179 1.10014e+06 1.27818e+06 1.03824e+06 -192115 -134438 293249 
33 1 41.2101 40.4907 6.97776 0.200424 -691369 324623 -284963 93383.3 -270584 261565 
18 1 44.2741 38.73 4.574 0.359499 80062.3 542057 200867 62458.1 -61568.5 386885 
37 1 44.0238 40.6042 6.94991 0.533885 -332236 328049 -116284 -171694 94049.4 145773 
41 1 46.8741 40.4887 6.99432 0.107935 469.721 -4151.09 150717 338600 -127043 -30196.9 
22 1 47.0828 38.9649 4.56543 0.544116 -602867 148338 -319619 159547 -271008 26537 
20 1 49.7756 40.5372 7.1135 0.495796 2750.58 -234276 -154915 146782 -81327.8 -113397 
228 1 47.8221 49.8205 14.1389 6.90979 171013 362800 306832 -33868.9 -273203 59876.4 
28 1 34.1782 41.3683 4.53578 33.6932 676607 1.1357e+06 729635 -401529 9052.91 -53281.4 
24 1 32.7908 43.9636 4.4591 28.6892 -19813.5 716801 481996 -536577 181237 -214008 
23 1 34.005 42.9664 6.78759 22.3003 257712 379576 785947 -158568 92377.5 185130 
32 1 37.0184 41.397 4.43624 0.469779 -468637 -711343 -61476.9 -469817 -85038.6 141069 
27 1 35.4972 43.8239 4.49588 0.456482 -684719 -378617 -125784 151526 -217059 85870.1 
26 1 36.8681 43.0931 6.84464 0.241075 -316064 -297516 -212446 233237 -203267 173058 
9 1 39.9097 41.2331 4.59389 0.313855 -200225 400717 -366672 -214470 11948.9 55906.9 
31 1 38.4326 43.8376 4.54022 0.20654 -237669 25768.5 246906 -65269.2 -117116 150222 
30 1 39.7232 43.071 6.87664 0.276754 -473485 -241156 -343633 -126092 -86499.9 153480 
13 1 42.7209 41.1664 4.54662 0.638414 -589330 560000 29268 -16511.4 -203865 115480 
36 1 41.2382 43.8369 4.57871 0.0845101 -696107 278765 -46924.2 -169404 152454 61314.6 
34 1 42.5801 43.0567 7.05441 0.380618 -495598 -357911 -398431 -76750.5 55690.9 260260 
17 1 45.461 41.3448 4.62444 0.171073 -1.09216e+06 -441365 -443095 -108548 194861 340124 
40 1 43.9834 43.7912 4.70168 0.394749 -626550 127472 -177050 397382 -38863 39145.3 
38 1 45.4549 43.014 7.0995 0.450669 -615812 -375085 -279298 59376.2 -57648.3 47026.1 
39 1 46.8043 43.8148 4.68048 7.24789 -29910 -119715 -12323.2 -23964 -85452.5 129296 
44 1 48.3283 41.4645 4.65972 0.207326 -614966 -158105 -9173.75 30146.2 -113259 -48726.7 
67 1 48.2438 43.056 7.08361 0.152532 -334593 430844 11698.9 50049.4 -290720 155703 
43 1 49.6957 44.0787 4.74073 7.06491 -4310.88 310639 334988 40075.6 -173421 171252 
50 1 31.4285 46.308 4.57459 38.0136 -89540.8 302513 194355 -1362.45 -90361.2 116789 
54 1 34.1599 46.311 4.4096 0.869049 -1.34667e+06 -1.29053e+06 -776800 -144673 -56334.9 274154 
47 1 32.6674 45.483 6.73956 20.6857 -537123 183290 -46107.3 -202214 -191229 203171 
58 1 36.9914 46.2416 4.61571 0.48837 -414910 55566.1 369246 -20496.6 -74140.6 20464.6 
51 1 35.38 45.4204 6.92004 0.292263 -780566 -571119 -156789 227323 9260.16 72961.4 
62 1 39.8208 46.363 4.62056 0.176727 -533952 -208217 -326415 -5211.57 -276490 308420 
55 1 38.2932 45.5778 7.01571 0.420175 -700182 -563553 -227973 129048 -221314 96982.4 
35 1 42.6918 46.3333 4.61793 0.314786 537.626 123071 -157863 111630 -119472 88318.4 
59 1 41.0673 45.558 6.90772 0.255494 -520119 -300646 -196373 76470.2 -274068 237164 
1438 1 45.5158 46.4104 4.71173 13.4917 906413 1.36526e+06 617377 12075.3 -207390 161842 
63 1 43.9831 45.4586 7.03177 0.343256 -458505 -235056 -315904 -61945 -388273 100010 
70 1 46.7575 45.6247 6.98941 7.52496 -857769 103648 -127710 129099 -240649 234398 
68 1 49.4528 45.7274 7.12066 7.02575 -64761.2 113782 60083.7 -152333 -81668 83413.1 
45 1 31.3556 47.9478 6.65475 47.1644 -159516 583075 701118 -7112.61 147398 62915.6 
46 1 32.719 48.7053 4.36982 13.1678 -1.02052e+06 -541408 133209 -91897.7 46013 128851 
48 1 33.9772 47.9659 6.79656 0.0932589 -1.5704e+06 -903573 -636052 64409 -68396.2 -37035 
49 1 35.4262 48.7808 4.40714 0.290486 -918869 -446184 -123678 -339470 22035.1 190237 
52 1 36.7494 47.9423 6.93616 0.13077 -713178 -509115 -212725 171342 -90023.5 -212511 
53 1 38.2968 48.7945 4.59411 0.0646414 -169575 161733 234195 55597.8 -141937 151307 
56 1 39.6001 48.0548 6.99229 0.106856 -339723 -137340 -111677 17878.5 -178487 175530 
57 1 41.134 48.8455 4.66127 0.120507 -176823 24829.7 1132.96 -92383.2 -126728 147150 
60 1 42.4326 48.069 7.01459 0.0904535 14653.5 354571 -75360.8 -68018.6 -288781 32262.8 
66 1 43.994 48.9954 4.6932 7.37096 58599.2 43473.8 -198599 86357.4 -119090 55087.1 
64 1 45.3047 48.0291 7.01749 7.53861 154056 327466 237050 263627 -45031.6 99823.8 
65 1 48.1207 48.1663 7.01794 21.6554 572750 519185 756918 327081 -76974 27891.9 
87 1 42.7772 34.8942 9.4246 29.6653 692212 -23244.5 1.41122e+06 -441614 325278 -182679 
91 1 45.5021 34.6402 9.2555 19.3759 1.16125e+06 673723 956243 57057.5 -391249 -9140.67 
95 1 48.4658 34.7289 9.35473 11.0158 674597 411472 984937 -146774 4093.91 103921 
82 1 38.2396 37.4654 9.17912 32.6377 575081 64548.2 1.2899e+06 -408422 283400 -250755 
84 1 41.0431 37.1418 9.33935 5.58559 1.01362e+06 702005 949068 -57770.3 -233776 62996.3 
88 1 44.0019 37.192 9.26525 0.265759 -153705 -731828 -198069 -413716 -283178 53091.3 
92 1 46.8476 37.1947 9.27749 0.163135 -342850 371921 -84164.5 73104.5 -131881 45590.6 
96 1 49.6771 37.2933 9.42367 0.285508 -174125 101730 -197129 147363 -66870.2 -201890 
101 1 36.735 39.7521 9.14415 21.8705 334499 368011 694952 -307497 -83223.2 235898 
105 1 39.6447 39.6956 9.27261 0.181275 -333409 -864298 -476347 -177530 -241041 188037 
109 1 42.5617 39.7226 9.25301 0.364895 -500495 -121002 -146775 203382 -276050 255145 
113 1 45.3428 39.6132 9.39592 0.277034 -688784 -417033 94190.6 -94591.9 -210664 105160 
117 1 48.208 39.7163 9.39959 0.0850328 -347155 -418189 -302351 210848 -33109 80207 
99 1 35.3362 42.2749 9.1507 19.432 202576 517765 736069 -352791 12478.3 150179 
102 1 38.1547 42.096 9.12836 0.636713 -106746 -294922 63936.5 141774 -235877 -88893.7 
106 1 41.0187 42.1561 9.27137 0.103672 -606598 -695566 -415155 -7063.94 -37345.4 -32626.5 
110 1 43.8512 42.1566 9.36286 0.108035 -535601 -292699 -549216 -113000 -191869 118972 
114 1 46.7191 42.1079 9.42065 0.299274 -199511 112635 -390349 216263 -295021 241313 
118 1 49.5966 42.2744 9.33382 0.22954 -285653 49483 -320442 154260 -240713 25061.4 
123 1 33.8645 44.6913 9.14879 21.395 172274 397026 598704 -359166 264147 108027 
127 1 36.6842 44.6525 9.34625 0.25849 -168901 -339888 -332998 -160998 -225507 43617.2 
131 1 39.5842 44.6223 9.31376 0.184658 -485464 -158694 -326692 166116 -319896 9892.54 
135 1 42.3385 44.6809 9.32932 0.156855 -346977 150291 -93725.9 -47411.4 -84672.8 -29528.3 
139 1 45.2361 44.738 9.3234 0.133753 -259323 163598 -461833 -4034.58 -399595 7637.3 
143 1 48.0481 44.824 9.40305 0.188271 -407063 48913.8 -260115 136424 15602.3 194857 
121 1 32.4705 47.1048 9.09469 27.0365 -67157.5 682228 1.11961e+06 -60953.7 129546 122793 
147 1 33.7685 49.6121 9.08138 6.31764 140890 416631 590808 320299 89962.2 -126670 
124 1 35.1613 47.1577 9.31387 0.480436 -856580 -685569 -605171 -96829.2 -93228.9 -165824 
148 1 36.573 49.6468 9.12547 0.424698 -731375 -406357 -700604 17396.5 -102832 83905.5 
128 1 37.9977 47.1579 9.35273 0.232958 -600663 -384024 -447359 -63298.3 -141949 -65187 
149 1 39.3461 49.6883 9.41916 0.360089 -513606 -340994 52799.7 -8689.22 -28376.3 -22965.1 
132 1 40.8134 47.2111 9.37144 0.303512 -247746 -378099 99741.3 -257597 19502.6 78726.6 
150 1 42.2054 49.564 9.39425 0.876827 -212731 -279649 -183701 55760.7 -1940.54 -41278.8 
136 1 43.7473 47.245 9.34143 0.178416 175068 479.659 283084 281308 -260652 3787.07 
140 1 46.6371 47.2411 9.35362 0.126269 -278595 20957.5 304310 84749 -186874 77154.7 
151 1 45.0934 49.7736 9.37834 0.31308 105481 120194 -14333.5 131672 -163072 106986 
152 1 47.9888 49.8104 9.38152 0.141648 171849 149749 162879 323526 -392879 149599 
144 1 49.418 47.3693 9.415 0.155737 -459949 -348255 -376842 81378.9 101563 -128640 
77 1 44.0477 34.1075 11.6933 35.1905 617401 -109999 1.07514e+06 -460218 -169730 26566.6 
79 1 46.8941 34.1206 11.5773 14.4006 759078 -426280 946017 -457474 2842.71 -40112.2 
81 1 49.7485 34.0015 11.7894 13.6723 592133 166937 684002 -133737 107507 -208009 
86 1 39.3972 36.6913 11.6231 28.167 640475 133946 1.30979e+06 -391200 67227.9 -48912 
90 1 42.2903 36.3302 11.7677 8.52432 754269 280314 294723 -106674 -81320.7 -8128.59 
94 1 45.2529 36.3863 11.6255 6.88258 -97026.2 -798847 256319 -136726 -119368 138430 
98 1 48.1621 36.3583 11.7201 7.34882 -71243.1 -769788 -53626.7 -271636 134241 -174905 
83 1 37.9212 38.9607 11.5182 10.3974 431890 415652 969402 -221699 -24868.4 -97515.6 
85 1 40.9121 38.845 11.6115 7.75872 -8814.72 -325761 72498.6 -137193 -232658 -87975.8 
89 1 43.7417 38.8028 11.6578 6.46876 143774 250127 231040 131194 94458.7 81142 
93 1 46.6982 38.8512 11.6862 7.17065 -31948.9 -393009 -365951 -150563 -298532 217390 
97 1 49.5829 38.9267 11.7451 7.75396 -243160 -250858 -534414 -276707 -290494 -92652 
104 1 36.3691 41.3336 11.5105 11.6023 940079 822352 1.62485e+06 8703.41 -101846 23523 
100 1 35.2196 43.8268 11.6554 13.2243 -388706 278708 878528 -352150 56209.9 -114347 
108 1 39.391 41.3234 11.6372 6.6512 453248 -254619 -71613.1 -33576.1 107218 -126654 
103 1 37.9488 43.803 11.6775 7.21231 -634663 -121315 -64053.8 358325 -113740 126805 
112 1 42.2898 41.3959 11.6947 6.83756 -384258 -262083 -428402 93443.6 98741 -80831.8 
107 1 40.826 43.7516 11.6704 7.0152 -403406 -676561 -193067 292500 -98246.7 99742.7 
116 1 45.1566 41.3026 11.7027 7.51546 -80395.6 307204 57713.9 81005.4 29625.1 198591 
111 1 43.677 43.8561 11.6885 7.88656 47696.2 40446.1 29159.2 24323.8 -136097 -71602.2 
115 1 46.5972 43.9021 11.6896 7.83269 102890 462137 258922 91368.6 -10768.5 61266.5 
120 1 47.9884 41.3649 11.7435 7.25454 -239936 -272570 -308208 -7919.66 -322905 260490 
119 1 49.4054 43.9054 11.7326 7.04832 -266565 -89488.3 -140969 163266 -64416 169839 
126 1 33.616 46.1809 11.4673 12.9573 400904 280762 794694 -28240.9 129680 14842.6 
130 1 36.5627 46.2759 11.7017 7.84059 -289424 -804327 -953810 110527 260079 -133720 
134 1 39.4083 46.2237 11.6541 6.96514 -247390 -137954 -294061 -79488.4 -37721.7 170341 
138 1 42.2437 46.3004 11.8123 7.93035 268393 273360 403280 163316 -58046.4 216.333 
142 1 45.1514 46.4124 11.7058 8.15482 406732 263693 349386 32.934 -100175 47011.3 
146 1 48.0585 46.4385 11.7956 7.38566 -419134 38575.6 -221062 416.031 -37328 -63733.2 
122 1 32.4814 48.5932 11.4736 22.9351 -565031 498741 1.14207e+06 49917.8 -132755 68634.6 
125 1 35.0483 48.7637 11.5106 7.52291 -1.21505e+06 -177042 -368174 145112 -149444 -367025 
129 1 37.87 48.8121 11.6648 7.69984 -10601.1 44286.6 -3202.79 -127383 280496 -121556 
133 1 40.8112 48.8161 11.7452 7.46369 347886 257659 -288035 22883.8 102733 114765 
137 1 43.7275 48.9034 11.7245 7.10662 -129915 75679.7 -5213.34 -1419.27 -61402.8 27606.3 
141 1 46.5338 48.9122 11.8557 8.1501 -48308.7 145627 279125 -18166.7 -129369 4735.46 
145 1 49.4369 49.0402 11.7218 7.61917 -300528 -438820 -35500.9 82711.4 -203257 -101551 
163 1 42.7221 34.8173 14.02 25.6499 478829 -311574 881109 -504019 -22856 47961 
167 1 45.4503 34.6959 14.0456 10.3517 800408 366830 1.24985e+06 86654.2 -253417 -173929 
153 1 43.7863 33.9402 16.4596 19.697 934516 516963 962938 -16951.4 17780.9 -242456 
220 1 49.3556 47.3278 14.1234 7.72547 -476940 -260488 -398570 -5029 -33622.7 -256827 
157 1 49.5588 33.956 16.4373 9.17062 435711 382720 673685 151985 -644819 -132876 
171 1 48.2986 34.6271 14.0686 9.27379 583697 589752 467724 17103.9 -28993.6 44792.9 
155 1 46.719 33.9434 16.4568 11.5435 1.35404e+06 357698 876427 127481 -102284 -158901 
158 1 38.1856 37.3252 13.9644 34.3401 498819 539154 1.64503e+06 -362222 139081 -176264 
162 1 39.2823 36.4849 16.4362 26.4876 1.25421e+06 647509 1.87018e+06 -298141 50782.8 -43276.3 
160 1 40.9027 37.1156 14.0502 8.95086 714415 403321 780994 -100141 -56231.2 -142879 
166 1 42.2255 36.2433 16.3699 9.2555 1.26667e+06 495033 657632 -61608.2 -72716.6 75864.9 
168 1 46.8149 37.2377 13.9986 7.21051 -185151 283968 -317079 -145053 102428 -82977.4 
164 1 43.8572 37.1214 14.0646 7.53612 208803 -345012 15234.6 -268506 -227423 -8167.11 
170 1 45.2522 36.3454 16.3369 7.90644 607095 86717.5 55480.2 199952 -273257 300552 
172 1 49.5447 37.3369 14.1065 7.85084 -303141 -110030 -19437.9 91907.2 -161970 261821 
174 1 48.1537 36.3935 16.4078 7.05968 -112342 7050.66 -129448 35884 16230.4 230216 
177 1 36.704 39.7419 13.9458 24.6106 299908 598146 1.02004e+06 -620009 -427.806 -213061 
181 1 39.4737 39.6677 13.9944 7.53832 -451118 -530234 585636 -49404 4447.82 144362 
159 1 37.8771 38.8552 16.3738 11.1986 435535 840645 979923 -95504.7 81009.1 -149636 
185 1 42.3007 39.5917 14.0495 7.86334 -110009 85573 245849 122754 -109934 -131472 
161 1 40.7745 38.736 16.4591 6.99305 358132 -262597 184481 24022.9 147742 -145369 
165 1 43.7108 38.7601 16.4091 7.23783 533663 309971 175200 214489 -165537 -9998.6 
189 1 45.1713 39.7898 14.0968 7.48731 -50139.9 476894 374618 45148 -169027 252865 
169 1 46.6549 38.8775 16.2876 7.52972 -86083.4 -92405.8 -580367 -265811 -59523.2 107618 
173 1 49.4826 38.9926 16.4621 7.71596 -206390 25727.4 -287184 29942.3 11738.6 57198.1 
193 1 47.9574 39.8235 14.0551 7.27857 -454427 -405017 -768874 -227364 195642 108261 
180 1 36.5884 41.3576 16.2324 12.3612 357359 455082 659451 -557118 49173.6 95316.1 
176 1 34.8814 43.7832 16.3142 12.1483 534829 655127 968401 -204080 -249855 77017.5 
175 1 35.2023 42.1549 14.0022 26.1359 661521 1.03229e+06 1.04533e+06 -339273 -206913 116623 
184 1 39.5096 41.2857 16.4768 7.89037 -32847 418365 190931 66945 -38551.8 44524.6 
178 1 38.0344 42.0469 13.9975 6.82651 -48480.4 -383722 211134 56687.8 571161 112150 
179 1 37.83 43.8092 16.3592 7.36404 455786 -223633 -246710 109054 -212221 35910 
188 1 42.2197 41.1955 16.4046 6.69562 -819195 -19974.6 -357642 -113234 -130526 140029 
183 1 40.8086 43.8749 16.434 8.02198 113658 465092 483833 -201560 14956.4 24353 
182 1 40.9361 42.0747 14.0053 7.10734 -873223 8107.49 -100028 -62918.2 71282 119866 
187 1 43.604 43.8161 16.4356 7.65208 -575340 -278075 -201106 205556 -29278 434.935 
192 1 45.0418 41.4026 16.5299 8.49493 -594768 -192242 -781661 -1638.25 -49980.8 -129974 
186 1 43.6195 42.1954 14.0773 7.39402 -699329 -219354 -27662.3 38286.5 -93700.2 -109339 
190 1 46.5432 42.3464 14.1714 7.32723 201217 -349748 -47257.1 127821 -224442 -2088.54 
191 1 46.4222 43.9368 16.4489 7.65829 -152989 -366386 -607020 94096.1 -73756.4 -174767 
196 1 47.9036 41.4356 16.3612 8.0566 67362.5 -15876.7 -460432 115793 -236126 27085.5 
195 1 49.4293 44.029 16.4898 7.37028 -266892 -108216 -349734 -22916.6 97343.8 237347 
194 1 49.489 42.3452 14.0581 7.60555 26467 -228104 -174353 195615 45727.8 106052 
202 1 33.625 46.2364 16.3484 11.458 -235959 -21502 322275 129908 -108231 -88705.9 
199 1 33.8686 44.6985 13.9828 25.1947 -151997 537288 631682 -474435 -43219.6 -11590.2 
203 1 36.5744 44.6024 14.0198 7.0264 -1.12375e+06 -798647 -961537 198726 -234719 -92529.4 
206 1 36.4131 46.213 16.3309 6.91852 -331619 -116452 -747137 272159 293579 72867.9 
210 1 39.2797 46.3326 16.2843 8.00555 -273780 -117840 -446348 53870.5 -220940 102609 
207 1 39.4049 44.7145 14.0157 7.49467 -153912 -53975.8 -160047 37147.1 -28156.4 -119435 
214 1 42.1814 46.3491 16.4839 8.18306 -336058 -331077 9899.84 10689.8 104049 -68759 
211 1 42.2622 44.6759 14.0827 7.55435 -411481 3306.38 -156387 109842 8457.36 265205 
218 1 44.9743 46.3448 16.4605 7.62892 -62763.5 98259.5 232994 218577 -99086.9 108404 
215 1 45.0306 44.7343 14.0512 7.73896 -176832 26036.4 156145 39287.2 -120032 2697.81 
222 1 47.8747 46.4931 16.4758 7.57275 -4750.45 150093 -241193 71325.4 41616.2 49355.3 
219 1 47.9765 44.7576 14.1103 7.9479 -152325 -200341 175193 -14410.9 -342.745 88166.1 
197 1 32.5213 47.2322 13.9078 33.2547 -190360 132057 1.09353e+06 -294976 -28218.8 -37416.8 
223 1 33.5724 49.6098 13.8743 10.2336 2192.59 174794 592061 -253807 -46677.3 1717.55 
198 1 32.4202 48.6369 16.2702 25.7972 -463740 534455 476303 51003 -55764.3 29898.6 
200 1 35.1684 47.0469 13.9163 7.62107 -1.51237e+06 -578887 -36971.5 -17284.3 183838 49945.6 
201 1 35.0066 48.9344 16.2801 7.76698 -716695 663433 102677 -4823.49 233649 136380 
224 1 36.4267 49.6192 13.9419 7.58808 172767 -85775.7 128560 162642 256991 20110.4 
204 1 37.9096 47.1208 14.0911 8.17655 -1.30175e+06 -301899 -566831 59157.9 -420935 155342 
205 1 37.8508 48.8113 16.4289 7.83507 279781 279307 276201 176303 -32885.9 -70460.7 
225 1 39.3439 49.7213 14.0461 7.82854 146813 -207547 296738 19262.4 -9049.26 99176.2 
208 1 40.717 47.235 14.062 7.15343 -259802 -183415 -368835 -156192 262228 87423.7 
226 1 42.2083 49.7707 14.092 7.37383 -503820 -324912 -128358 177949 -75453.8 -56916.1 
209 1 40.7527 48.802 16.4415 7.10533 -201544 -194002 -29301 -51.6648 -29692.6 -30134.6 
213 1 43.5287 48.8872 16.4496 7.25686 -120390 146285 111689 183291 -48565.6 6783.74 
212 1 43.6249 47.2613 14.1121 7.60859 367921 187377 193131 58657.2 -166912 -64424 
227 1 44.9907 49.8548 14.1284 7.14845 -248284 243386 20385.9 -177186 38365.2 -93039.5 
217 1 46.4193 48.9619 16.5606 8.06774 485404 652900 242840 90865.4 21252 34749.2 
216 1 46.5213 47.2325 14.0986 8.1262 63153.9 411928 180338 -3149.33 -86100.6 232341 
21 1 49.8688 38.9339 4.71862 0.296107 -694774 339051 -80337 75266.3 -129428 90798.8 
80 1 49.9364 35.7954 7.01534 0.858259 -581220 -1.7644e+06 -349775 -33260.6 -7927.88 -98088.9 
239 1 42.5372 34.76 18.7221 19.6279 226390 183931 576868 -350719 29417 -7427.27 
230 1 44.2215 32.5657 18.6666 56.6495 632000 -89971.1 913327 -246154 -99881.6 125916 
243 1 45.315 34.891 18.7515 6.62095 -704146 -1.65557e+06 -57419.9 -409409 31438.4 -51952 
232 1 46.8702 32.5646 18.7297 35.72 931378 -55728.7 553306 -22970.2 -20731.6 102876 
247 1 48.1843 34.9449 18.8511 6.41659 -346641 -1.26739e+06 -230775 61303.4 61799.1 -196659 
3049 1 49.5114 32.5745 18.849 44.9235 951857 409720 1.06383e+06 54860.4 33530.4 -28861.4 
234 1 38.1543 37.3104 18.8135 34.2644 330546 -1841.63 1.49235e+06 -493296 87899.2 -198029 
236 1 40.8737 37.0672 18.8186 8.88855 255797 431946 1.08231e+06 117502 -161760 144558 
240 1 43.6443 37.2477 18.8376 8.11744 -233199 -799386 -85087.3 -221799 -9305.55 -37623.1 
244 1 46.6427 37.301 18.7549 7.57992 -114331 -1.18831e+06 177175 -121335 -18465.7 124293 
248 1 49.5544 37.3758 18.7317 7.2356 -364412 -435024 -486676 -235369 -146262 125651 
253 1 36.7385 39.7554 18.6683 22.0053 -210398 318787 771797 -408078 88370.4 -129767 
257 1 39.4152 39.5922 18.753 7.26876 -1.33784e+06 -583269 -80620.9 -335878 142086 88622.3 
261 1 42.1865 39.7459 18.8257 7.16006 -822628 -717907 -310465 91439.8 -341198 265448 
265 1 45.0747 39.6625 18.7427 7.86898 -812415 -547848 -131140 -56380.6 -38470.6 328127 
269 1 47.8381 39.777 18.7091 7.25181 -601643 -450316 -407664 -214586 -35304.8 -2991.6 
251 1 35.2157 42.1516 18.691 25.0007 285972 1.16353e+06 1.3977e+06 -555386 -142318 125315 
254 1 37.8968 42.1538 18.7415 7.57912 -602998 -742546 212881 -366001 2753.27 -81255 
258 1 40.7723 42.1364 18.8394 7.65547 -312657 -196381 283059 159807 -278548 -227698 
262 1 43.5819 42.1054 18.7607 7.97972 -833653 -264729 -174289 -55451.8 99101.7 -70107.2 
266 1 46.3886 42.2633 18.7355 7.45101 -743757 -570566 -765742 -109406 -335513 -80383.4 
270 1 49.2656 42.3576 18.7016 7.56474 -155384 -329736 -155986 278647 -19939.4 167683 
275 1 33.6161 44.8152 18.6948 25.9638 458933 938317 838060 -531589 -2469.05 111774 
279 1 36.3581 44.6241 18.6433 8.1911 -48753.3 -62923.1 207594 99623.4 79121.7 160134 
283 1 39.2362 44.5935 18.7082 7.89556 477885 580430 593073 -206101 -3969.26 9512.02 
287 1 42.2023 44.6574 18.7955 7.25515 84172.5 255748 -82938.6 80400.4 -182495 64345.3 
291 1 45.0008 44.7539 18.8246 7.65525 -470825 59081.1 -9613.14 115004 12744 -12025.3 
295 1 47.8184 44.7452 18.7532 7.43692 -370658 -539913 -325805 191988 -51860.4 -13702 
273 1 32.3879 47.339 18.6218 32.3989 -360120 133514 669082 -179801 96895.4 7968.52 
299 1 33.5353 49.7611 18.5312 9.07141 161152 162684 482933 -62287.9 85875.4 -180634 
276 1 35.018 47.1878 18.5944 7.74924 -981140 -32361.3 50612.7 -92046.9 -153854 -137508 
300 1 36.4172 49.7317 18.7846 7.51162 52439.8 -30550.9 106683 37045.9 33735.1 -209580 
280 1 37.8134 47.2427 18.7635 7.75168 153389 444487 449566 -41135.2 -25902.1 215141 
301 1 39.2304 49.7254 18.7759 7.69061 -98838.7 146308 182487 -15565.3 -42971.4 72170.9 
284 1 40.6988 47.1827 18.7323 8.10068 391879 705146 256442 121887 202578 50561 
302 1 42.0832 49.8094 18.8046 6.6948 221092 -43835.3 -83296.1 38616.8 -6277.93 -46891.8 
288 1 43.541 47.2607 18.852 7.57218 334887 173989 177111 -103194 -72258.4 -223961 
292 1 46.4878 47.2279 18.8028 8.23121 -215273 -185968 -103568 189163 -39781.6 1880.2 
303 1 45 49.7092 18.8538 7.882 207455 512430 332054 -70822.1 131249 -29422.8 
304 1 47.8878 49.8112 18.7988 8.02183 -170235 75367.7 -243930 -30542.4 31392.8 156272 
296 1 49.2821 47.3027 18.844 7.41134 -369829 206475 -136313 150136 -34238 41190 
315 1 42.6924 34.6988 23.63 21.1917 700609 467494 1.31047e+06 -675014 -44368.1 -5932.95 
229 1 43.7609 33.9202 21.0651 16.6947 899577 933322 1.92623e+06 -201596 3272.85 140150 
319 1 45.4471 34.9994 23.5216 5.80325 -651703 -2.06997e+06 195048 -638293 118480 -60820.7 
306 1 44.6058 32.636 23.41 46.5555 890682 -16096.4 1.80851e+06 -432276 -159308 9885.06 
231 1 46.6101 33.8645 21.176 5.86822 1.65014e+06 926010 1.60681e+06 138279 -6041.07 -150783 
308 1 47.2058 32.5535 23.6247 36.9571 513716 55855.4 1.05069e+06 -207578 61663.2 -52110.7 
323 1 48.2319 34.9877 23.5441 5.86794 -1.23513e+06 -1.3017e+06 -445006 -149404 58685.5 -57836.1 
233 1 49.4833 33.9008 21.2295 7.4086 992631 517642 824477 349023 -199113 -31972.3 
3122 1 49.7484 32.5846 23.5121 46.0782 396789 -3014.77 538479 -127095 -24681.9 53544.5 
238 1 39.3047 36.5067 21.3186 27.661 1.02316e+06 484058 1.58561e+06 -339318 -183863 -59720.5 
310 1 38.0002 37.3024 23.6311 32.1788 541710 -149354 914092 -364141 63001.3 -323182 
312 1 40.8236 36.993 23.5572 9.05869 292261 512229 488683 -229975 -243847 155827 
242 1 42.2511 36.3058 21.1275 9.29592 828577 560795 636719 -213252 -17742.1 -10223.1 
316 1 43.5814 37.2029 23.5566 8.27555 -487815 -830781 241181 34653 27688.6 -123604 
246 1 45.1516 36.4778 21.1271 7.22979 61491.9 311693 -334599 15711 -279014 38996.2 
320 1 46.5254 37.3913 23.4374 7.55497 85138.4 -1.29965e+06 -233153 -434994 -182174 77254.9 
250 1 47.9814 36.4268 21.1073 6.62363 -118446 13352.1 -557228 32501.9 -47966.1 -235074 
324 1 49.5062 37.4327 23.4407 6.83329 -78785.6 -634671 244348 -432705 60281.1 113209 
329 1 36.6519 39.7249 23.4915 23.0573 28684.8 438592 925531 -420726 -82626.3 -17832.4 
235 1 37.8354 38.8121 21.1109 11.765 327449 305251 879764 -509902 -10984.4 -233890 
333 1 39.368 39.5515 23.5006 6.97492 -1.16354e+06 -223916 -366555 -207664 171106 245241 
237 1 40.772 38.7539 21.2372 8.15363 -205760 -256361 -121332 -127403 148312 -155175 
241 1 43.5821 38.89 21.0322 7.77517 -472904 -151104 -578078 246819 -139628 -217740 
337 1 42.1398 39.5911 23.5577 7.62859 -951813 123985 -82328.5 95958.3 -254825 113101 
341 1 44.8903 39.7716 23.461 7.18532 -313854 -366120 178038 271389 -38732.7 23352.4 
245 1 46.4876 38.9833 21.1475 7.87727 -699372 -580733 -407040 -243659 -15582.9 225108 
249 1 49.248 38.982 21.0616 6.5812 -460873 -244604 -204794 54223.8 -40255.5 100390 
345 1 47.8398 39.9199 23.5176 7.34384 30751.7 -325213 13055.7 89510.1 -92430 37911.2 
256 1 36.3213 41.2954 21.054 11.675 492561 1.13371e+06 1.11876e+06 -331580 8269.94 -4969.31 
252 1 34.8856 43.8397 21.0513 12.274 707692 1.12389e+06 1.57148e+06 -246502 -22029.2 64993.2 
327 1 35.2005 42.2452 23.4239 24.4028 83927.9 1.0279e+06 1.31015e+06 -577221 71183.9 -96867.1 
260 1 39.1644 41.1804 21.225 6.87785 431926 -2080.28 -6266.48 50471 40637.1 -36541.9 
255 1 37.764 43.7769 21.0649 7.23402 742621 835739 290926 160648 208244 -181682 
330 1 37.854 42.1149 23.4863 7.18701 -1.07398e+06 -559965 21768.3 -67678.8 211094 -167433 
259 1 40.6234 43.8046 21.1434 7.62022 287055 474813 229058 79028.6 -47311.8 -50314.3 
264 1 42.0986 41.2941 21.2634 7.82014 337643 42006.9 27246 159667 33507.8 -143604 
338 1 43.5809 42.1632 23.5741 7.69175 -177279 -401150 -309795 224453 -85372.2 -10177.3 
334 1 40.6536 42.2059 23.4934 8.0271 -207792 -12488.3 -154757 6306.55 46236.7 -131611 
263 1 43.4771 43.9047 21.1628 7.5935 134430 194529 91510.8 279528 26411 15170.2 
268 1 45.0219 41.4356 21.1641 7.08087 -306913 -73927 97695.9 -6534.5 50708.5 177929 
267 1 46.4862 43.8513 21.1375 6.7823 67013.4 -436144 -27775.1 46922.4 -36186.4 74651.6 
342 1 46.493 42.2909 23.5136 7.52277 -458897 -455888 -355907 313679 44962.5 49232.9 
346 1 49.2957 42.4687 23.4983 7.09946 -241955 -277546 193091 -66901.4 112699 34354.4 
272 1 47.8171 41.4419 21.0662 7.4944 -629925 -723132 -16146.5 248864 40469 54767.3 
271 1 49.3098 44.0064 21.1003 7.73713 -102205 -35494.2 99941.2 187631 -48434.4 163665 
278 1 33.5425 46.2805 21.0627 11.2477 101830 555584 960526 -158945 21852.2 -67033.8 
351 1 33.6745 44.8149 23.4386 24.6894 629916 812290 968111 -505785 37139.4 -94983.4 
282 1 36.3057 46.3971 21.0597 7.59927 201690 336327 366390 173420 -6996.14 76590.6 
355 1 36.4644 44.6337 23.3946 7.12486 -391858 -36293.2 348248 -3673.65 -49889.9 -28791.4 
286 1 39.2454 46.3782 21.1235 8.13611 363294 551412 648975 -23317.3 -5309.92 -1027.76 
359 1 39.2169 44.6672 23.538 8.51758 -455447 79058.4 213368 84531.3 -55839.9 103549 
290 1 42.0858 46.329 21.2099 7.84362 127749 -74735.1 246118 203032 -76726.5 157118 
363 1 42.0942 44.6874 23.4709 7.99184 -352450 150664 -370731 -61941.1 151841 162495 
294 1 44.9899 46.3379 21.2201 7.47728 407999 485146 203455 20279.3 -96303.4 -188778 
367 1 44.9045 44.6979 23.5739 7.82504 -225658 239341 43693.5 20058 110215 170554 
298 1 47.8863 46.4373 21.1448 7.28604 -48924.3 -104429 -155759 78629.2 4888.02 183579 
371 1 47.7839 44.8601 23.5075 7.02427 283551 -303832 169398 -120439 11089 -77196.8 
349 1 32.3502 47.248 23.3897 33.5221 -232036 578012 1.5447e+06 -89802.7 37729.2 -182868 
274 1 32.2833 48.7804 20.9244 24.7269 10742 810854 1.34222e+06 -156736 -76717.4 -246389 
375 1 33.3048 49.7631 23.3777 9.28905 763545 515732 1.06707e+06 -95943.1 -7847.29 -34160.4 
277 1 34.9467 48.8284 21.1005 7.83102 -444715 36702 742531 154493 103097 160345 
376 1 36.3314 49.7525 23.5863 7.52844 159341 -317429 220071 50287 51613.3 92256.3 
352 1 34.9543 47.23 23.4809 7.21277 -557714 214739 386196 -329432 -21547.9 -14832.8 
356 1 37.8008 47.2248 23.4537 7.60946 -418140 65463.1 289486 -114458 -29453.4 169498 
281 1 37.7463 48.866 21.1811 7.41259 -322337 -248236 -188650 -97591.1 -224006 108644 
285 1 40.6527 48.8078 21.1362 7.32701 206273 -132896 330799 -158563 -19791.5 48599.5 
289 1 43.5268 48.8765 21.1229 7.74824 558928 431242 190556 -8692.02 84908.1 -52377.8 
360 1 40.5479 47.2663 23.5636 7.38559 -219042 35253.8 69139.8 -108093 -12361.9 123052 
364 1 43.5077 47.2391 23.5111 8.2176 36751.3 191865 19861.2 68507.7 -1365.37 -11666.3 
293 1 46.5042 48.9818 21.1264 7.31465 86896.3 11662.4 -18625.7 -196689 -184482 182653 
379 1 44.8463 49.8342 23.5733 7.99975 -26620.9 -29497 323704 -25146.6 30545.7 309374 
368 1 46.3348 47.381 23.4604 7.16269 -13738.1 137202 96122.9 -23853.5 -72013.8 -64774.3 
297 1 49.3114 48.9588 21.2607 7.46788 -585971 -240549 -2183.74 138533 -15486.6 1683.81 
380 1 47.7823 49.8221 23.5587 7.96121 9446.37 -38486.9 -21870.9 -54993.2 28957.3 184610 
372 1 49.2166 47.3144 23.5772 7.21437 -228501 -332183 -611132 -74083 -53283.3 154540 
305 1 43.859 33.934 25.9926 14.8653 865780 663122 1.68201e+06 -522678 -488404 122265 
307 1 46.6976 33.9343 25.9935 7.54802 881469 479646 565338 -145755 89304 53850.4 
309 1 49.4842 33.9771 25.848 9.62894 710328 648986 592824 271489 5771.9 153964 
314 1 39.3211 36.4936 25.924 27.017 743843 243057 1.35618e+06 -327402 46918.2 -9851.36 
318 1 42.165 36.2817 25.895 9.00104 617127 496063 577587 -342803 -7490.54 44612.2 
322 1 45.0553 36.439 25.9163 6.65779 250792 -214459 -444864 106181 -92096.1 109370 
326 1 47.9686 36.5451 25.7935 7.50467 185277 158693 -384333 -120669 -108395 -246179 
311 1 37.8356 38.7978 25.8207 12.5935 137640 298319 135533 -104778 26131.7 51890.8 
313 1 40.6747 38.7959 25.9648 7.18987 -193670 9600.99 -117953 -19884 -81514.4 133929 
317 1 43.4968 38.7754 25.919 6.68035 -36250.3 195342 -326057 315829 -1387.11 -55169.4 
321 1 46.3807 39.0019 25.8059 7.73156 142740 69675.5 38521.3 127834 210031 132325 
325 1 49.2584 39.081 25.8798 7.08395 112348 -501031 -285154 -17764.3 -87711.1 241732 
332 1 36.4271 41.304 25.8981 12.302 239951 548007 851645 -360696 66605.3 85968.6 