ITEM: TIMESTEP
90000
ITEM: NUMBER OF ATOMS
5538
ITEM: BOX BOUNDS pp pp pp
0.382303 99.6177
-0.0776302 100.078
3.93717 96.0628
ITEM: ATOMS id type x y z c_csym c_2[1] c_2[2] c_2[3] c_2[4] c_2[5] c_2[6] 
1 1 42.8902 36.5032 5.29577 21.2855 1.04709e+06 498809 1.98555e+06 -215246 -168862 -406760 
3 1 45.6328 36.4327 5.23338 13.609 395489 168275 988994 24823.9 -292269 -89715.2 
19 1 48.4137 36.3725 5.19655 5.77234 583620 633061 278286 368157 -120349 33421.6 
7 1 35.7254 39.2641 5.21539 38.9646 658038 555978 912956 -450015 164616 -329897 
10 1 38.4217 38.9145 5.17092 11.5537 454719 512650 516241 -114676 -34476.9 253231 
14 1 41.2927 38.8766 5.11838 6.17671 540124 580521 198116 71692.5 -131659 -20364.4 
18 1 44.1805 38.9118 5.17039 0.188484 135902 -143334 -304077 61696.3 -161657 -107217 
22 1 47.0845 38.8696 5.10745 0.374534 215823 141446 -120777 162839 -18134.3 -268837 
21 1 49.9455 39.0276 5.19858 0.259167 65570.1 483409 277299 145860 33597 -241683 
28 1 34.1778 41.6276 5.15512 35.6353 1.16771e+06 1.3077e+06 1.09848e+06 -564921 5743.4 -161470 
24 1 32.8004 44.0852 5.23766 33.1229 -61546 764063 687667 -702825 -20628.8 45005.5 
23 1 34.1053 43.1459 7.44411 21.9687 232430 824468 522503 -204963 198305 126150 
32 1 37.0988 41.5439 5.15611 0.356888 -208925 -321149 -558377 -337611 -250613 -31204.4 
27 1 35.4903 44.0549 5.17224 0.516587 -1.14237e+06 -448578 -484239 113106 -299410 107503 
9 1 39.8992 41.41 5.11281 0.226829 -161876 764077 -160567 77963.3 108923 51408.4 
31 1 38.3311 44.0968 5.0852 0.36311 3698.35 -11015.4 -178156 -154102 34936.3 2544.5 
13 1 42.7429 41.4312 5.01376 0.228819 154923 406278 -63416.4 100103 -138832 -85451.2 
36 1 41.2937 44.0607 5.09635 0.235274 243960 563558 -40490.9 95830.5 -183703 -40539.4 
17 1 45.6204 41.4284 5.01675 0.163326 338024 694489 511865 -101722 37559.1 97895.3 
40 1 44.0857 43.9979 5.07248 0.242661 182050 458087 238822 86292.5 -51158.7 -209362 
39 1 46.9574 44.02 4.99195 7.36427 575192 456746 227392 45613.4 -10797.5 -233854 
44 1 48.4713 41.4987 5.13196 0.138907 70428.5 -13724.1 -299801 41298.7 -151914 -120177 
50 1 31.4159 46.5945 5.34929 37.8443 -36624 638272 912741 -141957 21322.8 -78201.5 
54 1 34.0422 46.4309 5.24387 0.465356 -1.15315e+06 -671179 -337869 -214147 -35705.1 75926.4 
58 1 36.9258 46.5427 5.11023 0.230127 -440426 11660 -297576 -2112.89 -124571 340173 
62 1 39.7751 46.5942 5.08513 0.265525 23584.3 -27893.9 -334335 -39372.2 18823.9 -77605.3 
35 1 42.7274 46.568 4.95449 0.311807 127990 -23659.3 39782 -2456.21 -168177 116897 
1438 1 45.5023 46.522 4.91579 13.6857 668207 1.08448e+06 780844 -57274.5 -26960.8 44181.6 
43 1 49.8048 43.9769 5.02427 7.16893 -20618.6 15907.2 -46930.8 1906.38 136563 -353555 
68 1 49.6439 45.6959 7.19145 7.1467 700257 622017 384741 28042 -5830.08 -74768.7 
45 1 31.3354 48.0823 7.49872 39.9878 40161.9 976795 697690 166890 62264.4 47524.1 
46 1 32.4651 49.043 5.12797 11.5169 166359 500815 1.35247e+06 -305451 155398 46303.2 
48 1 33.9631 48.1244 7.55739 0.538648 -1.0109e+06 -560160 -423184 -235766 304355 -91523.8 
49 1 35.261 49.0415 5.13563 0.525849 490309 278509 157345 -14259.4 -168198 61085.2 
52 1 36.7716 48.3397 7.40722 0.631934 -323273 -378001 -241798 -233559 -147188 -163239 
53 1 38.2823 49.0775 4.92299 0.351856 318447 -280604 -41311.1 -173934 -94025.3 46465.5 
56 1 39.6464 48.2703 7.272 0.250853 -83728.4 -332083 -249616 -86156.4 -234431 -89139.6 
57 1 41.2147 49.0738 4.87083 0.440131 4614.32 -22777.3 -8326.45 -82059.4 -1818.57 99888 
66 1 44.0358 49.0471 4.87734 6.70583 216979 239772 238691 -267874 99183.6 -125631 
65 1 48.0871 48.188 7.26329 14.3101 793056 865110 648428 -61820.3 -93920.7 -35879.4 
87 1 42.7856 34.9895 10.0234 34.7759 703273 -74416.4 660339 -160472 267146 -382617 
91 1 45.6203 34.9282 9.97646 21.8785 1.07684e+06 -33284.8 520464 -69674.4 -122603 -156028 
4 1 48.6833 33.5784 7.27872 51.4187 681687 288444 1.213e+06 -128694 -65519.6 -75561.1 
95 1 48.5581 34.8582 9.87135 11.9541 1.08348e+06 466957 1.33973e+06 -96963.2 -225338 241601 
6 1 37.1418 38.4719 7.55853 28.1113 76392.6 -351751 627935 -293755 553317 -335676 
8 1 39.8567 38.1976 7.47257 13.4694 436163 591531 580119 -510843 -69190.4 -191567 
82 1 38.4443 37.5034 9.83968 34.3751 540432 421907 1.22057e+06 -388435 139521 -85012.6 
11 1 41.4729 35.7521 7.73791 41.767 1.10112e+06 700339 1.15678e+06 -279297 -61410.8 -326088 
84 1 41.2 37.2614 9.93771 6.00253 240318 -34899.8 20848.5 66465.5 -109008 -61556.6 
15 1 44.1927 35.6361 7.71913 21.8177 1.1713e+06 404112 939338 -5276.79 -66796.6 -296916 
16 1 45.5703 38.1673 7.46373 0.193584 -575167 -355635 -470801 98642.9 -150085 -77520.1 
88 1 44.1559 37.3411 9.93907 0.135992 -69800 -607129 -118889 -84739.1 -19878.9 -45781.1 
92 1 47.0687 37.3164 9.81687 0.239297 -463256 11889.9 -364869 -99930.8 167148 15485.1 
2 1 47.1288 35.7008 7.56174 13.4467 567810 -323326 183530 -159655 7977.31 -184805 
78 1 48.4281 38.1287 7.49241 0.234692 -38728.4 -313217 -179970 114351 43712.5 207470 
96 1 49.8786 37.3749 9.8633 0.217973 -466211 39734.3 -113183 -115186 50697.6 -115188 
25 1 35.5426 40.6748 7.43522 21.4607 368166 400768 842280 -207031 228258 -53021.4 
101 1 36.9375 39.8914 9.81386 22.0092 605909 662479 574953 -390484 138440 -98198.6 
29 1 38.411 40.7836 7.4735 0.436988 -468924 -1.02978e+06 -354184 -246877 -114041 202661 
105 1 39.8412 39.793 9.80832 0.33786 -197281 -331517 -146230 -197384 -202677 103167 
12 1 42.7358 38.1415 7.57037 0.121022 -371575 -495913 -193841 -156062 -68799.7 -198003 
33 1 41.3042 40.5782 7.42162 0.277962 -321424 -144722 -139909 -36853 -131190 159533 
109 1 42.6584 39.8113 9.81632 0.0903648 -488430 -344214 -274889 38882.4 20504.1 -52626.7 
37 1 44.1246 40.6106 7.44803 0.0610169 -446587 -376025 -171054 -27376.6 -39380.6 -142879 
41 1 46.9627 40.5937 7.42528 0.109522 -217626 -287243 249035 -228705 99071.3 86080.9 
113 1 45.5249 39.7703 9.78564 0.208557 20845.2 -139535 79467.6 -64722.3 -20543.9 -27351.5 
20 1 49.8487 40.7201 7.46312 0.140137 122743 -187188 -243528 -1539.87 -153482 -24152 
117 1 48.4437 39.866 9.86074 0.132931 -105744 -42562.6 488518 -43417.9 9240.74 -4349.08 
26 1 36.9237 43.1561 7.46293 0.140372 -313087 -440460 -419715 426559 -163458 -226361 
99 1 35.4353 42.3512 9.86693 22.2595 274837 88762.9 1.0349e+06 -176606 131208 133177 
30 1 39.7724 43.234 7.45344 0.115607 -308178 -99679.1 529283 -344080 744.813 109643 
102 1 38.2827 42.3521 9.86143 0.108691 165689 -266139 119234 211392 -191842 -174748 
34 1 42.5685 43.1474 7.42952 0.170582 -23544.2 2309.08 -36533.8 98041.3 -21462.6 98567.6 
106 1 41.171 42.2721 9.80287 0.156843 -95723.8 -262220 263447 -307714 -19673.2 65179.2 
38 1 45.5214 43.1259 7.42927 0.215549 -5946.73 269109 110018 -16366.5 -43047.9 -182991 
110 1 44.016 42.2554 9.75771 0.185232 -184473 -371949 -19969.5 -293654 -120978 50047.9 
114 1 46.9152 42.3198 9.83341 0.194271 -5686.05 119422 -11492.7 61487.2 -25142.8 115780 
67 1 48.2934 43.1085 7.39672 0.224428 -269096 18526.1 74314.6 -32621.4 84007.7 -188241 
118 1 49.7865 42.3434 9.83521 0.288208 -463591 -288704 -313719 -108716 -95144.9 18060.9 
47 1 32.7151 45.646 7.59832 20.0044 220045 311865 378455 -395914 230293 183949 
123 1 34.0607 44.6255 9.83008 20.0993 110495 636642 684814 -28689.8 -147027 136169 
51 1 35.5679 45.7024 7.47975 0.533898 -432748 -156986 -581885 428393 -224728 -47979.2 
127 1 36.8288 44.723 9.80993 0.336784 -995876 -655622 -402348 129169 -262084 82569.7 
55 1 38.3475 45.7582 7.40382 0.29882 -652955 -32057.5 -474456 2762.76 -59920.2 -3654.85 
131 1 39.5835 44.9088 9.84152 0.393253 -919934 -486127 -280897 -235366 -129632 50468 
59 1 41.168 45.6499 7.40338 0.239862 -591577 -506353 -492856 39689.4 -165751 -249787 
135 1 42.383 44.7497 9.75078 0.368827 -208366 -327283 -160828 -228938 -119787 -22049.9 
63 1 43.9612 45.6973 7.26017 0.27651 -311043 -219133 -307507 21133.5 -220077 -277364 
70 1 46.8 45.7143 7.25205 7.38045 344832 385246 482113 -7908.81 -31775.1 24993.5 
139 1 45.2892 44.7141 9.6505 0.481959 433622 -32208.9 140095 -95572.4 -15422.1 -297198 
143 1 48.22 44.882 9.66896 0.108767 97030.8 54502.5 437563 -100295 1143.54 -150456 
121 1 32.5315 47.2508 9.83599 27.8599 356297 850697 602305 -213531 290000 -86476.4 
147 1 33.5581 49.8713 9.67604 6.24539 862389 842305 1.03637e+06 42715.6 354426 -158930 
124 1 35.2961 47.2444 9.86766 0.303486 -319506 231374 -383717 -90864.7 -285177 22733.4 
148 1 36.4821 49.7768 9.71795 0.270882 462759 -176549 -98318.9 -78591.4 -21029.6 -284709 
128 1 38.0707 47.3458 9.73218 0.163612 -636617 -324901 12866.2 154734 -33171.6 -95588.8 
149 1 39.357 49.8605 9.69586 0.220752 368692 397268 371768 136089 -161815 161586 
60 1 42.5138 48.2291 7.27242 0.147287 -303739 -193910 56603.9 -67135.7 -115083 48989 
132 1 40.8719 47.3218 9.58065 0.619578 -219503 -100572 -1933.8 -101326 -43933.1 -70593.4 
150 1 42.2763 49.9116 9.61477 0.107356 361412 484169 248886 -103486 88218.4 -16123.6 
64 1 45.2826 48.1674 7.32749 6.97229 -410230 -412330 229705 -306082 64348.9 31146.6 
136 1 43.7206 47.2259 9.6251 0.511885 274710 461872 -44707.9 -138361 21761.5 85757.5 
155 1 46.9231 34.0595 17.0579 12.428 1.71234e+06 713382 1.27633e+06 239389 -103796 -426247 
140 1 46.6553 47.2939 9.6608 0.226997 226254 374058 203234 44733.2 -122567 129473 
144 1 49.5174 47.3781 9.52549 0.126545 -150669 -126211 237540 19743.2 27990.4 112577 
220 1 49.4991 47.4623 14.3232 8.24772 14522 78262.2 245650 -128088 -226669 -95574.1 
77 1 44.2832 34.3533 12.308 29.5321 124579 -253958 481119 -311176 -3540.31 -41611.1 
79 1 47.1122 34.1732 12.219 21.4942 861314 336283 777946 -60526.9 -50383.6 -142440 
217 1 46.4525 49.1599 16.6331 7.57061 -120744 -77799.1 -399670 266735 -222547 14518.6 
86 1 39.6955 36.8198 12.2436 26.0498 405448 -5748.02 622608 -277151 170885 -63568.4 
90 1 42.6023 36.4845 12.2279 9.64878 620708 92162.2 -366585 36793 -51138.5 -67079.1 
94 1 45.6859 36.5822 12.2571 7.41181 -536164 -1.12316e+06 -537492 -670853 -209835 -263427 
98 1 48.4971 36.6407 12.2269 7.23316 -797638 -186090 -418335 -58604 24420.6 102483 
83 1 38.1987 39.0437 12.1801 11.6175 339264 321615 1.17648e+06 -32689 -119511 89645.9 
85 1 41.0994 39.0974 12.1784 6.98905 -129242 -606376 -296744 -185298 -196184 -20405.1 
89 1 44.0269 39.0455 12.2334 7.39447 178705 323550 -102187 133640 25596 -119848 
93 1 46.8924 39.0523 12.2458 7.80741 287485 -244425 201913 -260711 -97160.1 117097 
97 1 49.9027 39.1199 12.2409 7.46625 -515598 -489105 -168607 -473920 -63513.3 85255.2 
104 1 36.7036 41.424 12.2197 12.6958 585958 748289 1.07431e+06 -208403 -156816 -125559 
100 1 35.3482 43.9492 12.1833 12.212 -211246 366372 434240 -168046 -233942 -119774 
108 1 39.6573 41.4947 12.2448 7.4343 143762 -205833 -23941.8 157929 3094.53 5448.12 
103 1 38.1164 43.994 12.2068 7.48126 -428720 96777.5 -498052 162758 -35347.7 37000.6 
112 1 42.5107 41.5244 12.2107 7.26857 -279519 -204261 -114729 -116526 -2409.23 40299.2 
107 1 40.9586 44.0161 12.1408 6.98665 -68227.5 34656.1 -64864.5 -87626.2 -135943 147701 
111 1 43.8893 44.0651 12.1239 7.74012 -63601.4 -129994 98550.5 -152828 -38771.2 -9207.61 
116 1 45.3726 41.6055 12.1394 7.16716 -289338 110001 -111034 -133983 -93042.8 -19836 
115 1 46.7509 44.0679 12.0951 7.83501 -181097 -353314 -11190.3 -63060.2 11856 -29617 
120 1 48.2444 41.5967 12.2183 7.52416 -540226 -60430.3 -446195 19560.2 12503.9 65053.5 
119 1 49.6307 44.1255 12.096 7.75745 -435543 -583049 59170.3 -111804 42684.6 -14736 
126 1 33.8438 46.2869 12.1839 11.2338 59059.6 83637.5 395168 -177183 31048.1 282982 
130 1 36.6666 46.5229 12.1912 8.06014 -338409 -152692 -347272 48.1987 -164052 249615 
134 1 39.4864 46.5294 12.1297 7.51691 -172360 64504.5 -43028.8 -115567 -174455 -194376 
138 1 42.3455 46.5425 12.011 7.90349 67501.9 176988 202726 -115682 233087 707.34 
142 1 45.217 46.4912 11.9703 7.77096 177584 47592.8 181678 -31574.1 105616 188606 
146 1 48.1376 46.5615 11.9659 7.60155 -85023.3 172528 -5402.47 -41798.9 -168331 -17506.5 
122 1 32.4534 48.714 12.0876 29.9366 -603341 601666 664700 -76065.4 -112015 -103880 
125 1 35.0002 48.9417 12.1479 7.16191 -865612 -135253 113789 140914 161763 -139695 
129 1 37.929 49.0242 12.0633 7.40465 395575 281052 376712 -169315 -14244.2 -43375.5 
133 1 40.8398 49.0577 11.9669 7.91268 327179 164661 372826 -287142 -44202.5 140847 
137 1 43.7542 49.0091 11.971 7.40832 443363 263839 583254 -213389 -22191.6 201356 
141 1 46.6142 49.1552 11.939 7.73272 130785 270019 87306.3 -299979 -139449 180285 
145 1 49.5147 49.1581 11.8862 7.96133 -121236 418078 99987.9 -173029 -153360 -119260 
163 1 42.9547 35.0858 14.6028 23.5736 284475 -559104 565726 -404633 73678.8 50757.9 
152 1 48.0243 49.8383 9.56305 0.150001 54444 -70636.3 -50920.2 -214711 166345 78880.5 
167 1 45.6716 34.7757 14.5917 12.1382 48073.8 509514 668355 -132191 -190603 -100305 
221 1 49.4516 49.2235 16.5836 7.89163 422757 82047.8 379529 -32768.9 -101152 -10882.4 
151 1 45.1131 49.834 9.57236 0.141628 264498 396768 163101 -67866.7 64000.1 -57640 
171 1 48.4244 34.9389 14.5454 9.7853 100217 -180192 469555 -3753.52 -81231.5 -249374 
157 1 49.9063 34.1504 17.0082 10.899 890291 213214 1.00744e+06 226814 -199532 58474.6 
158 1 38.5531 37.5201 14.5675 21.7713 -185602 -109866 282876 -349520 36062.3 -155999 
162 1 39.659 36.8413 16.9132 27.5822 311950 -396446 635121 -189900 -106988 22349.4 
160 1 41.2062 37.3475 14.542 8.83932 -30935.9 259470 667050 -39397 72610.1 -76661.4 
166 1 42.5939 36.4645 16.9787 9.50657 1.16561e+06 785446 820159 -389531 79234.9 -133403 
164 1 44.1187 37.3769 14.5661 8.23003 -188930 -712608 -90547.8 -547539 -63489.6 -132932 
170 1 45.544 36.5146 16.9013 7.64995 788940 225553 413078 72910 -137109 224556 
168 1 46.992 37.4055 14.5348 7.89967 -472685 26057.5 -631270 61240 -178564 -158200 
174 1 48.5127 36.5048 16.9094 6.54997 73915.1 107449 -15830.6 136885 171484 26859.1 
172 1 49.8138 37.4599 14.5777 7.20452 -482731 -135860 -211050 -61972.5 65451.6 29375.2 
177 1 36.858 39.911 14.5975 26.9011 701101 676288 820468 -373184 -141802 78691.4 
181 1 39.7327 39.8672 14.6167 7.15797 -170571 -685253 -223732 -220692 72374.3 99940.7 
159 1 38.1385 39.0033 16.8551 12.7142 27796 -266603 237409 108601 -109066 262383 
161 1 41.0449 39.0536 16.9542 7.6264 235330 -179570 177346 -367952 -280708 -22371.5 
185 1 42.5962 39.8641 14.5063 7.56073 -190353 170909 -18325 131401 4679.37 -459.603 
165 1 44.0164 38.9557 16.8401 7.43072 606857 431850 27621.3 -79674.4 59497.1 -93653.6 
189 1 45.4416 39.9209 14.5975 7.9279 -527389 -271972 -246415 -144605 -12705.3 -59827.7 
169 1 46.9367 39.0491 16.8475 7.06732 -218645 -75382.3 -578661 -73416.1 -8907.29 264482 
193 1 48.2596 40.0107 14.5627 7.33309 -355402 -150470 -228107 -149363 27923 157641 
173 1 49.7225 39.1385 16.9723 7.54102 -86605.8 46505.8 78921.6 5906.37 90074.4 80292.9 
180 1 36.665 41.443 16.9439 12.2851 -133171 199738 -86921.2 -292144 -352222 -33919.3 
176 1 35.1431 43.9383 16.9008 12.6702 265962 425113 762017 -388030 -46595.4 -111413 
175 1 35.5828 42.4043 14.6467 20.4073 -494218 358892 516186 -339319 -8062.64 37417.5 
184 1 39.5069 41.5071 16.9356 7.14024 137342 -190857 -208412 230471 108975 -152082 
179 1 37.9742 43.9376 16.8087 7.0677 -97350 -492375 -370635 162532 -40474.6 100359 
178 1 38.1847 42.3197 14.5264 7.67947 -921051 -247676 -339339 123306 109649 -123622 
183 1 40.8593 44.0148 16.8387 6.8408 265681 162581 114161 121273 -37578.3 -123041 
182 1 41.1297 42.3764 14.5146 6.88564 237809 172362 70419.1 -126385 -32030 -159103 
188 1 42.4662 41.545 16.9262 7.62063 663100 547880 275275 -185200 -84744.5 73394.4 
186 1 44.0018 42.4101 14.5143 7.25212 -195360 272515 261413 59229 14547.2 -136133 
187 1 43.8144 44.0749 16.8172 7.59102 547977 538357 357532 -194180 10866.6 -157800 
192 1 45.4064 41.4994 16.931 7.35723 37749.6 166517 -291185 -211759 -126706 -41398.6 
190 1 46.7727 42.442 14.4506 7.76924 -499481 -198060 -324719 40848 42591.3 -215965 
191 1 46.6922 44.1419 16.7003 7.99756 -151853 99821.6 -103079 42948.4 -62055.2 -32201.7 
195 1 49.5072 44.2356 16.7855 7.29598 -283807 -131675 -450924 -158932 -80711.6 -64379.3 
196 1 48.219 41.6681 16.9072 8.08272 -668059 -169669 -713211 -103575 -36579.4 -161727 
194 1 49.6486 42.5311 14.5241 7.34645 119334 -29601.3 -143205 -50726 -19482.9 -91488.9 
202 1 33.6445 46.3636 16.8424 12.0972 129371 422677 934237 176975 164638 -252246 
199 1 33.8961 44.9094 14.4838 24.3674 501387 784914 594260 -506403 40519.5 142475 
203 1 36.6626 44.8803 14.497 7.02485 -542602 -857342 -712369 -69594.4 -134156 -24858.3 
206 1 36.4729 46.4053 16.8658 6.77133 168014 3682.34 -226635 206023 -182277 -39872.5 
210 1 39.3599 46.4575 16.8026 6.50042 -122529 -440281 -833278 92869.8 -318920 -188698 
207 1 39.5158 44.9433 14.5409 7.0778 -42952.7 -74762.3 -455515 -58175.3 -70053.7 -155871 
214 1 42.2442 46.5778 16.7438 7.43012 26356.7 136058 20360 133961 -324222 -130362 
211 1 42.403 44.9056 14.4085 8.01942 303385 249618 301116 683.843 -45204.8 -164377 
218 1 45.1327 46.6143 16.6935 7.58806 -279714 -124388 -270182 -15099.6 -319878 -224936 
215 1 45.3053 45.0012 14.409 7.01802 74328 35345.5 -326044 152158 -175693 -112308 
222 1 47.9456 46.7172 16.7927 7.04921 -157077 75577.7 -13163.9 168033 56617.1 -68301.4 
219 1 48.1755 45.036 14.413 7.0874 28789.5 5561.9 -86505.6 -169781 614.139 131693 
197 1 32.4652 47.3521 14.4118 24.1277 214820 291141 1.01055e+06 -259502 -4476.76 38977.4 
223 1 33.5723 49.7775 14.4496 9.35202 283590 183279 51946.3 -143901 262555 75251.4 
198 1 32.5278 48.792 16.8133 24.2317 -216671 349372 890038 -37548.4 101396 213253 
200 1 35.1919 47.3441 14.5164 6.72574 -223403 -119742 -52748.7 96633.8 -149027 60924 
201 1 35.1633 48.9792 16.8962 7.41269 -184248 427838 697404 27157.3 -150757 -144647 
224 1 36.5273 49.9804 14.4373 6.92585 781102 180178 523094 121852 478.205 -114762 
204 1 38.0628 47.4063 14.542 7.15876 39492.7 80909.2 13580.9 -9529.94 -267035 -67976.3 
205 1 37.9911 49.0599 16.8261 7.93019 3835.39 280443 386502 -195979 -64388.4 -73782.5 
225 1 39.4273 49.9337 14.3856 7.23136 -15576.7 86588.7 206857 -90894.9 -71795.1 -55560.2 
209 1 40.8107 48.9805 16.7803 7.18311 -282053 -137291 -7350.06 -44437.3 50793.7 70918.2 
208 1 40.9503 47.4211 14.3801 7.22828 -41630.8 -404333 -43324.8 -270347 -246352 -145991 
228 1 48.0663 50.0462 14.1958 7.41612 -377087 -579170 -249974 -79408.3 -173698 32222.7 
212 1 43.8516 47.474 14.3644 7.06577 -84551.4 -203724 187453 121531 -181749 195308 
213 1 43.6544 49.1195 16.8099 7.54997 -743467 -129606 -543913 -12993.3 -336688 4062.46 
81 1 49.9089 34.2043 12.2666 12.4754 532736 189995 632577 -136823 207936 -265236 
216 1 46.6705 47.5995 14.3012 6.85033 -102192 -61947.6 278247 29871.3 67358.7 -54384.7 
153 1 44.1355 34.1032 16.8708 18.8938 788006 775417 1.63753e+06 -190715 115821 -198369 
226 1 42.2075 49.8409 14.4466 8.13219 -418954 -295587 69260.4 -223933 -72926.6 -59272.6 
239 1 42.988 34.9639 19.3647 20.1145 174153 435497 1.13071e+06 -616438 -117850 108391 
230 1 44.5546 32.6775 19.2591 64.081 744304 390566 1.36005e+06 -195420 -50261.8 -143276 
243 1 45.6796 35.0261 19.3515 6.23128 -1.34324e+06 -996094 -402195 -228390 377624 -89295 
232 1 47.1647 32.5756 19.3585 39.0407 831134 95802.5 168506 -74199.6 -3879.36 -324493 
247 1 48.4388 35.0784 19.4216 6.51023 -859137 -1.09563e+06 -588092 262002 -39496.1 222840 
414 1 49.4428 47.5192 28.4461 7.89595 -285501 -239323 -120774 -231082 -71101.9 -63928.1 
234 1 38.3638 37.6251 19.1664 28.2792 512083 -329667 735076 -521598 101379 -44073.6 
236 1 41.1495 37.2815 19.2832 8.81082 1.03572e+06 858373 991370 -214874 -120096 -2856.45 
240 1 44.0313 37.4121 19.3442 8.12468 537010 -265340 554097 -127178 -57283.8 13648.7 
244 1 47.0824 37.5432 19.1779 7.00749 -104891 -743864 -185339 114899 -62058.9 -15889.5 
248 1 49.8387 37.5777 19.3685 6.55056 -676471 -493263 -506055 -100943 40825.6 -11733.9 
253 1 36.7654 39.9467 19.3143 17.7237 643791 596921 1.0167e+06 -465606 -87388.9 157883 
257 1 39.6111 39.8662 19.3176 7.87835 -52483.7 -586798 56870.5 -503632 22813.5 64862.2 
261 1 42.5231 39.8689 19.2347 7.86524 338408 220926 308825 86915.2 -97922.4 -134236 
265 1 45.4213 39.942 19.2067 7.63532 31439.5 -150080 -43511.1 73874.8 -145336 78545.7 
269 1 48.2569 40.0735 19.2679 6.90045 -282050 -984689 -535962 -102737 158461 21277 
251 1 35.3545 42.4122 19.1945 23.6934 210924 657607 1.0393e+06 -500636 123403 68472.8 
254 1 38.069 42.3134 19.1564 7.98035 -411456 -330526 -477597 12223.7 -50800.8 -191647 
258 1 41.0578 42.3314 19.2653 6.91243 119405 228037 204168 -35076.6 -24645.3 -54056.9 
262 1 43.8871 42.3804 19.2457 7.86938 -283589 -120661 -195623 24056.9 -131964 -31927.3 
266 1 46.7986 42.4709 19.1709 7.51798 -499421 -565828 -491701 216657 -23541 -281399 
270 1 49.6443 42.5513 19.0959 7.2871 -570750 -360347 -500142 -201913 -3043.59 -386662 
275 1 33.7863 44.8371 19.2539 27.495 635378 893627 1.09802e+06 -511722 60366.3 -122695 
279 1 36.5765 44.8192 19.2318 7.51527 81794.5 -487024 5319.69 -77985.4 -161668 22513.7 
283 1 39.512 44.8884 19.1314 7.32193 266629 -78646.2 64151.9 -205816 145660 -35600.9 
287 1 42.3943 44.8827 19.1505 7.42756 121929 -105047 340005 -261921 49636.2 -74769.7 
291 1 45.2721 44.9055 19.1209 7.36603 -250973 11054.4 59752.6 34698.7 -271304 -56741.8 
295 1 48.0897 45.0328 19.0944 7.71128 -361108 -187913 -265488 -159810 160273 41000.8 
273 1 32.4891 47.371 19.1301 30.0289 -632397 498155 956314 -106792 -2468.06 30018.1 
299 1 33.5503 49.8631 19.3132 9.16022 105743 397144 328261 1574.47 -212480 -145461 
276 1 35.0421 47.2775 19.2958 7.85197 -1.28568e+06 -152946 -28741 -142431 34004.1 5465.04 
300 1 36.3787 49.8709 19.308 7.98883 -106826 -284187 -300324 -63285.2 -151085 -94081.5 
280 1 37.8786 47.371 19.1517 7.18056 -287990 128317 -15852.2 -145021 -39378.6 -135106 
301 1 39.2698 49.9338 19.2091 7.84507 -95853.4 -263644 211660 66040.9 -72286.1 -149128 
284 1 40.693 47.3407 19.1251 7.15509 -174901 -105845 38344.9 -503579 6855.9 45827.4 
302 1 42.102 49.8743 19.164 7.55692 -15152.1 287668 -93101.7 -1415.77 11538.1 -91439.5 
288 1 43.5819 47.3344 19.059 7.37919 -29912 -106575 58210.4 -440208 -81885.6 136825 
292 1 46.4617 47.4953 18.9956 7.54177 21995 -476714 -311420 6193.41 118152 -256771 
3049 1 49.8061 32.7664 19.3142 35.6886 1.01884e+06 245057 673971 195915 -32916.2 -77289.1 
304 1 47.8761 49.9771 19.0121 7.22951 -132365 -192527 94907.6 -302882 45659 -40934.6 
296 1 49.478 47.5145 19.05 7.67791 133519 -147584 -47144.2 -188942 -181557 -5487.41 
229 1 44.3252 34.1117 21.6584 14.0538 662297 583083 1.22804e+06 -720807 -140096 178839 
231 1 47.1598 33.8543 21.6131 8.9492 505008 431482 -138919 -230863 147538 175822 
233 1 49.8347 34.13 21.6046 10.6388 -188830 214073 251283 113043 -97327.7 9837.08 
238 1 39.5523 36.7883 21.6949 27.5345 666752 14086.7 1.1888e+06 -96083.8 56108.5 -189877 
242 1 42.5233 36.5679 21.6763 8.56995 884258 551773 243502 -527472 146163 -222454 
246 1 45.5196 36.5619 21.6614 7.47351 120950 -186102 -329839 -277352 -145736 -92938.8 
250 1 48.2928 36.6639 21.7011 6.93807 -720005 -179521 -438318 155022 16936.5 -245005 
235 1 38.0887 38.9872 21.6068 12.8101 165209 278180 359807 90856 128062 42047.4 
237 1 40.9932 39.0483 21.6556 7.63403 119492 -68354.8 185250 -315025 -180106 53064.3 
241 1 43.8995 38.9704 21.7288 7.65628 276930 -217252 39460.9 14353.5 -29913.5 -134406 
245 1 46.864 39.066 21.5284 7.04857 -529801 -649997 -493328 -47203.7 -113311 -21977.9 
249 1 49.6225 39.1561 21.6536 7.43974 -580157 -377764 -386613 -133280 -10906.3 -271906 
256 1 36.6403 41.5194 21.6696 12.5227 230707 527770 777515 -419329 -85499.9 148116 
252 1 35.1518 44.0083 21.7053 12.4292 167915 491290 1.03098e+06 -409485 -66973.7 -122086 
260 1 39.4588 41.6086 21.6205 7.17114 231234 161187 294215 195346 -3993.25 -195484 
255 1 38.0122 43.9741 21.5452 7.79419 -38036.7 -549502 -54529.8 265596 272.022 18825.4 
259 1 40.9196 44.0144 21.5853 7.78226 97182.6 134666 317607 -286391 62920.1 -105275 
264 1 42.4442 41.4528 21.578 7.2803 -153987 -323845 -444844 -258110 -180224 -44374.7 
263 1 43.7644 43.9998 21.5793 7.20597 -162470 -142028 -238658 -947.064 -22542.6 15535.3 
268 1 45.2685 41.5148 21.5195 7.1886 -222897 187999 4035.23 156778 -57868.6 -14107.4 
267 1 46.6067 44.1708 21.4312 7.62075 201236 480797 248955 247660 -29803.4 1316.47 
272 1 48.0834 41.6629 21.5589 7.50547 -31242.3 -210860 -236325 -47599.3 -185161 -13255.7 
278 1 33.6599 46.3625 21.5813 11.7483 73475.7 257939 803944 -71206.9 115248 -137248 
282 1 36.5293 46.4382 21.6105 7.79085 -471172 -666006 -611069 -152800 -79590.5 50803.5 
286 1 39.3389 46.5074 21.4861 7.29659 -50455.4 117310 44095.5 -30635.9 132412 37488 
290 1 42.2797 46.5059 21.5085 7.34537 281544 318662 129857 -13561.9 171359 -10471 
294 1 45.0976 46.5983 21.4379 7.37656 225697 340821 296187 25345.2 -47339.1 -106584 
271 1 49.5111 44.1263 21.429 7.06378 363425 353684 156961 -78393.3 -80457.7 -13552.6 
298 1 48.0447 46.7271 21.3836 7.95412 316055 204693 232759 -39713.1 287736 -191175 
274 1 32.3222 48.6837 21.6466 28.2843 19441.9 753269 1.0426e+06 122548 -71628.5 63982.2 
277 1 34.987 48.9809 21.5787 8.11008 -958649 -168065 -822515 -37366.4 -33842.5 116411 
281 1 37.7896 48.9381 21.5146 7.12849 -220131 -240094 -564201 17257.8 -97620.4 86599.8 
285 1 40.7769 49.0272 21.529 7.43462 370863 258423 -276971 -170316 161298 152503 
289 1 43.667 49.1552 21.4474 7.38476 279879 452102 263519 -125849 -85363.7 222165 
293 1 46.5663 49.1345 21.3506 7.38509 -223889 -96522.2 -204717 -31635 52911.4 170044 
297 1 49.3834 49.2257 21.3981 7.78687 -167789 -280325 -20626 -130069 15382.8 41863.1 
380 1 47.9529 50.0039 23.7911 8.02597 -243744 -512124 -355548 64659.7 -100635 -223063 
315 1 42.7829 34.8625 24.0142 20.3585 978698 538708 1.15093e+06 -347488 -105411 -100275 
308 1 47.1359 32.6041 23.917 28.1874 763561 -107194 480868 -35087.1 82778.3 291749 
305 1 44.1619 34.1437 26.377 14.2975 70994.6 231640 507477 -339676 -128784 -356528 
306 1 44.5192 32.7905 24.1252 51.225 329765 -494203 703410 -368570 180202 -133393 
319 1 45.7131 35.0013 23.9798 6.42939 -458501 -1.74633e+06 -146153 -499455 -202465 247402 
307 1 46.917 34.012 26.398 9.35317 626598 289534 595325 31907.1 158821 380509 
323 1 48.5149 34.9562 24.0579 6.14609 -794378 -1.24205e+06 -345508 76436.3 -65383.5 -131156 
3122 1 49.803 32.6814 24.0079 44.5132 753520 -158843 787778 217714 71611.2 -203868 
309 1 49.7477 33.9258 26.3415 9.58006 971603 641825 701306 371807 -210645 96337.5 
310 1 38.3341 37.5206 23.923 25.0331 603630 96308.4 1.10413e+06 -527820 223890 10660.9 
314 1 39.6326 36.6862 26.3356 25.073 1.16797e+06 775043 1.83474e+06 -556208 -202123 -37016.7 
312 1 41.1506 37.2371 23.9272 8.59261 403084 453622 122080 -20975.4 -16727.3 -162860 
316 1 43.9878 37.3336 23.9963 8.0517 -127542 39671.2 -125847 -79238.4 34635.6 72464.8 
318 1 42.4926 36.4481 26.2717 10.3788 967741 550769 471835 -132530 -44662.5 35698.6 
320 1 46.8788 37.5341 24.0127 7.07611 11490.6 -724311 -204173 -275819 104095 -282414 
322 1 45.5024 36.5851 26.4184 8.034 418434 43101.3 30025.3 -204617 130252 151358 
324 1 49.7817 37.4366 24.0274 6.94563 -302206 -136401 -719865 -366091 -16045.3 -158366 
326 1 48.3311 36.4812 26.3554 6.52856 -318448 230622 -311786 -321510 -31622.2 -255176 
329 1 36.7754 39.9357 23.8235 22.257 664265 746010 819401 -406574 156812 73768.4 
333 1 39.5772 39.789 24.0168 7.87889 -76821.8 132112 387311 -412502 -35952.9 -32666 
311 1 38.1005 39.0631 26.4182 12.5048 632350 900744 1.12087e+06 -385755 161371 -115292 
336 1 39.4309 41.5985 26.332 7.30129 -96000.7 55282.5 15501.1 71098.6 -179376 -25696.6 
337 1 42.4457 39.8771 23.9841 7.19314 -182729 49896.2 -719193 20480.1 102886 25576.2 
313 1 41.0662 38.9618 26.2526 8.07108 87610.7 82423.3 105315 -352272 1916.1 69747.8 
317 1 43.8589 39.052 26.2736 7.98496 21096.7 398110 6239.9 14900.2 3875.52 152742 
341 1 45.3714 39.9468 23.9576 7.7765 -439086 -18334.4 -240515 55046.4 -132298 -168258 
321 1 46.7984 39.1327 26.2955 7.18741 -211787 -309244 -519846 -397495 -376383 -276561 
345 1 48.1083 40.0374 23.8688 7.27413 -376287 -83198.1 -411799 -276162 143402 -98262.9 
325 1 49.6239 39.0879 26.2869 7.69238 -961949 -659104 -248114 -154200 183494 -53159.6 
327 1 35.269 42.3329 24.0029 27.1527 418826 818312 707606 -209179 -33115.4 16957.2 
332 1 36.5951 41.4497 26.2742 12.3256 270550 656143 816809 -192629 462.987 173266 
328 1 35.1533 43.9366 26.3554 12.3745 4602.82 155319 96229.9 -293961 -168577 112493 
330 1 38.0573 42.4037 23.9779 7.58937 -156085 -367123 -357755 164.315 -57903.5 -67454.2 
331 1 38.0067 43.9809 26.341 7.77489 42462.6 -49142.1 -4214.24 301073 -58517.7 -151732 
334 1 40.9665 42.3662 23.9331 7.34491 -117331 378057 -11239.6 154017 -197716 97671.9 
335 1 40.865 44.0443 26.2799 7.8861 -90477.3 51778.6 150528 -124065 -108560 -186395 
338 1 43.7578 42.4345 23.8408 7.77268 -112619 -23952.6 -316448 -140336 -121518 66952.3 
340 1 42.2749 41.5294 26.2553 7.55341 240989 41630.8 56893.8 77450 -261012 -58077.4 
339 1 43.7294 44.0744 26.1896 7.7619 67234.1 141074 136569 -64957.7 23260.1 125312 
342 1 46.6606 42.5355 23.9432 7.3132 394326 64764 115796 80767.1 98606.5 -168868 
344 1 45.2469 41.5525 26.208 7.42715 121767 -36064 -4735.66 -138777 13416.7 -316957 
343 1 46.5841 44.109 26.2204 7.416 203906 13745.2 -160711 -50645.4 -52183.5 -3828.03 
346 1 49.597 42.5783 23.8578 6.84305 274489 199753 213990 -51919.8 149646 -40572 
348 1 48.0814 41.6065 26.2485 7.39206 -543496 -296460 -336058 -55436.1 -129820 169001 
347 1 49.4777 44.2375 26.2168 7.44323 7410.5 336404 112415 140686 -48005.9 28373.4 
351 1 33.8957 44.7524 24.0707 23.0453 233971 982311 677559 -263215 63543.8 -91241.7 
354 1 33.6011 46.3599 26.3288 12.4461 61682.4 313108 765249 -174253 -212696 51378.3 
355 1 36.6355 44.8178 23.8944 7.00858 -644450 -497643 -571488 88254.7 -66805.5 -39143.1 
358 1 36.3908 46.4283 26.2133 7.17209 335106 -25898.5 38451.6 203994 919.09 71390.3 
359 1 39.4769 44.8975 23.8857 7.51256 51396.8 177858 190084 -58479.2 -13304.5 -140490 
362 1 39.3667 46.5437 26.1735 7.86201 424259 329163 166054 -76027.9 -148064 -110940 
363 1 42.3795 44.9859 23.8938 6.93346 -138495 35323.4 -168040 233480 -106551 37527.9 