ITEM: TIMESTEP
30000
ITEM: NUMBER OF ATOMS
5538
ITEM: BOX BOUNDS pp pp pp
0.382303 99.6177
-0.0776302 100.078
4.21109 95.7889
ITEM: ATOMS id type x y z c_csym c_2[1] c_2[2] c_2[3] c_2[4] c_2[5] c_2[6] 
5 1 49.9382 34.1439 4.97224 27.8495 379622 229466 525234 22698.1 80102.7 46005.1 
1 1 42.6287 36.5192 5.11233 20.6312 1.10558e+06 527036 1.84481e+06 -237451 12136.6 -86629.7 
3 1 45.4496 36.4939 4.94679 12.9117 671786 424480 883305 110447 -382511 217179 
15 1 44.0768 35.8727 7.50625 21.1214 -462221 -242473 881206 -176675 -27583.5 -405644 
2 1 46.8229 35.8264 7.45181 11.2496 -24053.2 -399119 562218 405734 -81791.7 -69908 
19 1 48.2685 36.3282 4.93209 5.22145 751955 1.09718e+06 1.01145e+06 126738 -216748 57833.3 
80 1 49.8431 36.0412 7.29045 1.43857 -311158 -1.25913e+06 254989 6528.42 12638.4 32667.3 
6 1 36.955 38.34 7.48152 32.6264 424211 149833 813850 -338500 352624 -168476 
7 1 35.6497 39.1615 5.23945 38.4529 277735 -66125.3 978874 -641397 34342.1 -27928.8 
25 1 35.3978 40.6704 7.52458 22.2441 366927 384165 617497 -400626 133256 2929.99 
8 1 39.7318 38.1037 7.49702 11.8148 799404 559631 851675 -76980.9 -325123 33941.7 
10 1 38.32 38.8949 5.1688 13.4548 321651 494409 1.00859e+06 -141812 4584.45 280620 
29 1 38.2636 40.6692 7.5835 0.355834 -376707 -320972 -127682 -377578 49360.8 -107393 
12 1 42.656 38.3806 7.43533 0.781806 -803107 -1.09141e+06 -3976.01 -314999 -79447.2 109079 
14 1 41.1672 38.9274 5.05362 6.0625 334048 985889 981792 -8079.99 -254352 290839 
33 1 41.0511 40.6764 7.49183 0.203492 -301795 99279.8 356127 308265 -121846 90508.2 
16 1 45.452 38.2221 7.36631 0.213164 -873157 -790397 213972 -118645 180486 239876 
18 1 43.9798 38.8995 4.98684 0.315066 -431467 45336.1 17960.5 -6361.79 87799.9 151485 
37 1 44.0133 40.7315 7.47437 0.159596 -550024 -662114 67560.9 -326030 -149483 233136 
41 1 46.8131 40.6973 7.44347 0.17808 -438853 -306719 -69582.1 25141.4 25657.2 200023 
22 1 46.8354 39.0321 4.94126 0.30504 92693.4 428610 281032 35811.7 5196.51 50608.7 
78 1 48.2856 38.3133 7.33782 0.315383 177781 144597 693245 394700 167609 159002 
20 1 49.7579 40.8141 7.36375 0.292291 -209047 -137874 74337.3 -96941.1 -52121.8 73668.8 
21 1 49.7238 38.892 4.99446 0.858242 241415 580954 460563 339558 93862.4 48293.4 
28 1 34.0848 41.522 5.22095 31.7151 523840 969279 1.13352e+06 -659389 12321.1 -34493 
24 1 32.4975 43.9256 5.2464 35.2921 553553 755921 965392 -578240 -61592.4 -3099.04 
23 1 33.8674 43.1367 7.49814 21.897 173660 816221 887451 -88561.5 121447 211111 
32 1 36.8232 41.3983 5.09483 0.281765 -646692 -716460 228357 -606279 24333.3 -94129.5 
27 1 35.3112 43.8909 5.13099 0.270663 -205344 -527885 164338 54695.5 -229254 254950 
26 1 36.6462 43.1175 7.4418 0.361446 -77915.1 -206149 -59839.7 -75824.2 -110566 87644.6 
9 1 39.6839 41.4555 5.13492 0.113101 -18579.7 226347 12819.4 141342 -15085.9 144766 
31 1 38.2851 43.91 5.06177 0.277613 -149985 -466833 -201669 68570.1 -225208 129151 
30 1 39.6005 43.1831 7.44801 0.211828 -77778.7 -268825 -133869 -83591.1 -55675.3 -21208 
13 1 42.5801 41.4189 5.09789 0.132796 299715 669720 766422 291421 -231680 151894 
34 1 42.4673 43.1593 7.48885 0.172953 -351324 -441202 -9272.31 38874 -292958 199368 
36 1 41.1564 43.9342 5.17508 0.34752 -293638 -249906 -258731 -14090.2 -32895.9 35207.6 
17 1 45.4242 41.4362 5.02852 0.15656 -295522 390639 301378 104592 95417.7 40966.8 
40 1 44.025 44.07 5.07489 0.571029 -141023 376222 136689 270572 -103544 43107.2 
38 1 45.3672 43.2008 7.33717 0.357841 -409527 -482998 129261 237675 -192953 79936.5 
44 1 48.194 41.5459 5.10165 0.347012 -301109 306157 107065 -174368 -45836.1 300717 
50 1 31.1425 46.2473 5.32756 42.5256 284983 786966 1.08601e+06 -3137.25 -38101.4 198237 
54 1 33.8442 46.2316 5.09451 0.522626 -644842 -518852 -246164 -165616 -42685 227142 
47 1 32.5036 45.5542 7.56885 19.8291 -275286 -15903.6 575016 -313336 6318.33 322830 
58 1 36.805 46.3465 5.17873 0.299658 -334817 -58422.3 -403119 -59350.7 -283335 293324 
51 1 35.2806 45.6927 7.5608 0.487656 -970246 -211100 -267119 360634 -189280 259187 
62 1 39.6485 46.3557 5.15202 0.188845 -429788 -548238 241265 -106216 -58970.3 17821.3 
55 1 38.0648 45.6251 7.4868 0.208323 -564605 -456527 -443250 -147555 -65615.3 232437 
35 1 42.5103 46.4221 5.09485 0.228187 -198520 -520285 25148.5 125217 136081 197400 
59 1 41.0653 45.6121 7.54193 0.353639 -90930.1 -566552 -138965 43159.4 -113424 -124744 
39 1 46.8329 44.0411 4.96346 7.10706 -436791 512818 539582 96558.4 -84425 212545 
1438 1 45.3945 46.5223 5.09115 12.5854 819268 1.12307e+06 991915 -53096.6 -78079 35026.3 
43 1 49.5148 44.0844 5.08078 6.95157 -231443 454985 91015.9 -107169 -225400 -94938 
68 1 49.5584 45.784 7.26345 6.87244 23259.6 -268309 350178 -84904.4 -53826.9 -87436.2 
45 1 31.1394 47.9795 7.53177 44.113 -489523 860673 998484 105621 111628 355989 
46 1 32.2448 48.7122 5.09069 11.7453 66100 466445 886454 -180367 -90076.2 207524 
48 1 33.692 47.9961 7.49071 0.304844 -1.38672e+06 -737459 55499.5 -118599 195592 182772 
49 1 35.1051 48.8153 5.19423 0.503669 145456 -348124 -114722 -14163.5 -45579.7 142399 
52 1 36.6376 48.1815 7.49139 0.483164 -414962 -486276 -47843.4 -73482 -230993 -64638.7 
53 1 38.1474 48.8102 5.0275 0.341333 -180379 -550871 -187681 -34186.8 -125421 184207 
56 1 39.4286 48.0152 7.45778 0.29389 -692760 -83072.4 -142150 -162942 -214596 75513.4 
57 1 40.9841 48.7955 5.00544 0.253349 -383552 -367165 77828.8 -103113 -241471 124767 
60 1 42.2359 48.1586 7.4329 0.436301 -67281.2 -191547 -13866.2 -370455 -18091.7 112665 
66 1 43.8178 48.9563 5.07884 6.74808 -9244.17 -156913 193249 -245325 -43416.1 -109559 
64 1 45.2171 48.0917 7.42239 7.01663 86554.8 -168584 45960.7 107917 -39257.5 52067.2 
87 1 42.623 35.1862 9.8698 35.3563 913913 215815 905076 -95956.3 -3413.84 -99553.3 
91 1 45.5031 35.0872 9.83574 21.0462 1.0546e+06 58103.6 641527 -39250.5 -139433 76489.7 
4 1 48.4491 33.8167 7.12853 42.1509 309823 -125569 559165 -70652.3 174428 -311534 
95 1 48.3809 34.9567 9.57613 10.9097 1.1122e+06 880539 1.34755e+06 20183.9 -192122 133834 
82 1 38.2709 37.5797 9.85164 34.9066 486375 -150347 1.34861e+06 -384302 331561 -299756 
11 1 41.4796 36.004 7.61617 33.5021 -157736 -160073 566360 -89517.6 52539.7 -168191 
84 1 41.106 37.4937 9.87545 5.86023 367061 -366954 127598 261679 -219054 -105629 
88 1 44.0982 37.5016 9.75076 0.391759 -7676.83 -397874 -106143 -102241 96646.3 -53181.5 
92 1 46.9516 37.4713 9.80917 0.258198 73833.4 457139 296933 -174306 -105526 -35148.9 
96 1 49.853 37.5774 9.77053 0.403504 355439 972034 788987 177531 -72895.8 -24486.1 
101 1 36.7854 39.8307 9.83301 22.1671 72182.5 189595 376515 -284369 80894.6 171304 
105 1 39.6329 39.8139 9.93961 0.417159 -592585 -778964 -176938 -2447.72 -214787 303569 
109 1 42.5437 39.9813 9.84834 0.0997265 -189199 21507.7 85486.3 105252 -12793.3 -187311 
113 1 45.3656 39.9717 9.81066 0.145896 -223923 -257870 2857.06 -303329 -19693.7 132809 
117 1 48.2856 40.0036 9.75941 0.0692566 -104051 56888.4 275583 -11463.3 -262272 208224 
99 1 35.2833 42.3353 9.75682 21.6199 523070 1.07943e+06 1.00992e+06 -441246 260637 159935 
102 1 38.0908 42.2828 9.84396 0.145112 126213 -292708 -53673.1 -132563 -19713.8 -264417 
106 1 41.0201 42.3621 9.85512 0.0904097 214576 -55112.8 197977 259394 -48615.1 -107741 
110 1 43.9499 42.4969 9.83915 0.175087 -291958 -383222 131884 70771.1 -198728 59138.6 
114 1 46.7812 42.4351 9.80009 0.112871 -486341 -94689.4 -81603.6 31472.1 327756 207598 
67 1 48.1965 43.248 7.51566 0.562394 -823266 -121701 -438857 52223.6 -52787.2 266768 
118 1 49.6349 42.4965 9.6846 0.329021 -446767 -138333 -202877 188101 -170294 261740 
123 1 33.834 44.8424 9.87202 20.2058 317470 1.08106e+06 930330 -447803 85897.6 311038 
127 1 36.6038 44.8512 9.79214 0.217964 -249611 69836.3 -296664 -10484 -300626 297334 
131 1 39.4936 44.7317 9.85111 0.374186 209055 183838 16513.8 18564 -245607 30195.8 
135 1 42.5106 44.9036 9.87717 0.382757 -264497 -360520 -644813 -22095.4 67246.3 228184 
63 1 43.922 45.5394 7.4671 0.642255 -523940 -412596 -200181 -222.245 -136931 -92056.3 
70 1 46.7509 45.7409 7.38952 7.39761 -395996 -367594 135624 -11781.7 -13211.1 258932 
139 1 45.3744 44.908 9.7801 0.210531 -769664 -410997 -424113 -146596 -296972 155782 
143 1 48.1839 45.0494 9.77429 0.183485 -538458 -236336 244791 -144882 -108245 -15028 
121 1 32.2609 47.262 9.91312 26.8488 458939 740187 1.27697e+06 -200999 150555 146090 
147 1 33.4433 49.7165 9.90325 5.80455 669159 622058 1.12149e+06 240640 88822.8 -54053.6 
124 1 35.0743 47.3734 9.95489 0.381008 -77539.8 -548058 -274809 -194188 -223117 -240133 
148 1 36.3981 49.7704 9.81915 0.140485 -46958.3 -636987 26464 -268249 3811.33 -116434 
128 1 37.9308 47.3172 9.83188 0.124164 50037.3 21521.9 473698 -122413 31181.5 18142.4 
149 1 39.2283 49.8381 9.81635 0.269185 -76138.5 -558017 281598 -133277 -152091 48776.8 
132 1 40.8149 47.335 9.76047 0.243012 151436 318159 -193101 24635.9 -163741 -110710 
150 1 42.2333 49.8154 9.84562 0.224942 -79755.5 -270097 92285.4 1561.14 127904 -191190 
136 1 43.7532 47.3893 9.79676 0.129026 -173665 -280505 -186197 -213604 162068 195592 
151 1 45.0567 49.923 9.71632 0.487642 -257484 -202261 85652.7 -41517.5 -14855.1 166171 
140 1 46.6438 47.4486 9.72715 0.10664 -466262 -114574 -118929 -78519.8 -26026.5 201447 
65 1 48.0453 48.1553 7.34466 13.2649 427534 377247 824152 -12109 117678 -4984.74 
144 1 49.4799 47.4535 9.72998 0.204795 -425275 -589967 286897 -248026 175184 105191 
152 1 48.0544 49.9397 9.71793 0.233629 -216007 11443.9 64068.9 -15703.9 242945 242310 
77 1 44.0848 34.5375 12.1748 33.5506 425743 -397318 864594 -144652 -41024.2 -111309 
79 1 46.9817 34.4099 12.0191 20.0047 1.02913e+06 -14404.5 840790 -224916 -189852 -115924 
81 1 49.8304 34.3592 12.1785 12.2614 970357 37183.5 825600 -325377 109004 -373553 
86 1 39.7645 36.84 12.2526 23.1802 754806 299920 1.43775e+06 -673625 -42003.4 -32336.4 
90 1 42.5984 36.7371 12.2094 9.30172 -127107 -177742 199732 21897.9 -128939 -184014 
94 1 45.4919 36.7862 12.2556 7.0613 -843860 -1.03744e+06 -124312 -360265 -34050.9 -134162 
98 1 48.3361 36.7237 12.1495 8.01713 -206190 -133182 391076 4159.26 -288076 153723 
83 1 38.0884 39.0866 12.1763 11.2221 225994 628827 868113 -134110 54436.8 1332.85 
85 1 40.97 39.1759 12.281 6.94493 -48681.1 -504566 -575250 -111114 -52618.7 -173775 
89 1 44.0036 39.1946 12.2542 7.67706 -180024 -471001 -329353 94026.1 9837.99 62469.2 
93 1 46.871 39.1714 12.2136 8.20156 -345870 -139831 276954 -144801 101640 -65385.8 
97 1 49.6696 39.3674 12.1288 7.2544 -604094 297131 -167689 -128289 -183734 -83367.4 
104 1 36.6653 41.4471 12.1827 12.4229 307258 661472 1.2671e+06 -372406 32447.4 -97735 
100 1 35.1557 43.9697 12.2546 12.2761 -17504.6 917898 968609 -495901 -144668 -114472 
108 1 39.4728 41.6571 12.2827 6.97438 290354 391777 66412.6 349592 -46287.9 2795.37 
103 1 37.8956 44.0083 12.1841 6.90212 -107109 -88456.9 -349474 224355 -41311.3 -117534 
112 1 42.4843 41.5797 12.1939 7.78041 489975 147965 -124595 -43352.9 -211685 -91662.6 
116 1 45.3991 41.6909 12.1271 7.66758 171663 169172 -98603.4 -131064 -12381.2 131602 
115 1 46.6925 44.2911 12.147 7.27318 -235419 190392 -66687.5 132866 -262228 96929.3 
120 1 48.2782 41.8002 12.196 7.3494 8002.43 271521 248726 464.106 -240945 -34753.9 
126 1 33.5962 46.4089 12.2951 12.3917 63355.3 276327 764225 -189238 31939.1 53688.6 
130 1 36.4139 46.4922 12.29 7.01401 265309 -185403 1865.98 256402 -142799 165542 
134 1 39.4313 46.4384 12.2661 8.52107 713929 219460 449903 67690.5 59231.9 39366.6 
107 1 40.9984 44.1629 12.0752 7.04246 143329 265358 -370073 80441.5 -95781.3 -74292.7 
138 1 42.3563 46.755 12.0936 6.92559 32191.3 -52595.7 -155679 -246637 8772.55 -1456.57 
111 1 43.8902 44.2114 12.2061 7.43751 -317706 300829 -488984 -84782 -75193.2 49562.3 
142 1 45.2867 46.6968 12.0677 7.2752 -187935 -301075 3069.34 145354 -75058.7 94877.3 
119 1 49.6207 44.3259 12.1524 7.47726 129081 329611 322490 -70821.4 -83111.1 230450 
146 1 48.1289 46.8488 12.1621 6.52899 -194047 27770.3 -120101 -219841 115978 -11889.3 
122 1 32.2653 48.7312 12.2659 30.7868 -77058.7 781831 1.24212e+06 103942 -59699.2 -96545.3 
125 1 34.9299 48.9371 12.2352 7.24555 -908247 -773957 -840637 105650 13928.9 -250674 
129 1 37.8134 48.9936 12.2946 7.79647 -14239.8 166633 162880 -139957 41575.1 -144992 
133 1 40.714 49.0497 12.1494 8.14133 512576 255597 626985 279926 59526.4 -31575.6 
137 1 43.8056 49.123 12.179 7.06941 -45969.4 -788494 29560.5 -321244 -7860.04 172516 
141 1 46.6167 49.2986 12.1508 7.17163 -86952.7 81515.4 907333 133544 145967 1085.51 
145 1 49.5259 49.2404 12.1614 7.48926 -313380 -483379 -167947 -432197 201629 157292 
163 1 42.8342 35.0855 14.5479 26.7141 849199 313282 1.54973e+06 -254387 165759 -18578.5 
167 1 45.5719 34.9058 14.4516 11.8831 238786 538497 1.16564e+06 -140610 -253151 3340.76 
153 1 44.1073 34.3363 17.0226 15.8686 534359 183192 1.57296e+06 -512379 -166016 -488964 
155 1 46.8695 34.2562 16.9351 12.0184 908664 349727 1.03103e+06 -162117 -60820.3 -381012 
171 1 48.2561 34.9893 14.4748 9.52969 -228437 158666 494821 -76162.3 -89954.5 54928.1 
157 1 49.7406 34.2854 16.7943 11.0487 347551 79595.1 650477 -208617 -166521 280036 
158 1 38.4173 37.5532 14.669 32.7454 565716 411940 1.64448e+06 -422644 1336.01 -128435 
162 1 39.6619 36.7981 17.0584 26.4318 878653 288925 1.52131e+06 -503191 -144543 -11188.5 
160 1 41.1597 37.3406 14.5706 8.63383 199373 444116 518871 -25596.1 -122943 -74957.5 
166 1 42.5369 36.6561 16.9969 9.75533 347280 423306 663512 -198703 106276 57014.7 
164 1 43.9683 37.5224 14.5586 8.04706 -614005 -310195 -508169 -124415 -230700 222201 
170 1 45.3586 36.7016 16.823 7.43435 -462485 -270718 -269430 -175001 64217.3 714498 
168 1 46.8402 37.4935 14.6069 7.63281 -643235 302534 -597884 65515.5 -179924 212322 
174 1 48.1976 36.7121 16.8821 7.20585 -327405 -154241 -483091 -104012 -314135 344982 
172 1 49.63 37.5563 14.5067 8.25374 -573077 116614 302892 199434 -113755 -100475 
177 1 36.8383 39.8916 14.6485 25.7826 588604 591488 960658 -482671 -104982 -26157.4 
181 1 39.6796 39.8964 14.5635 6.60764 -255194 -326424 -549797 -54467.9 233031 19910.2 
159 1 38.1531 39.1359 16.9547 12.0718 -266517 318923 541724 -348359 -184346 -63988.4 
185 1 42.567 39.9474 14.5547 7.32991 -265820 -150676 -111168 203890 36590.1 -57906.1 
161 1 40.944 39.1009 16.9144 7.15782 -160080 -233088 -123593 131290 188901 18597 
189 1 45.4139 40.0317 14.5016 7.64063 -147591 104999 47917.2 -88552 -230375 -158635 
169 1 46.7258 39.2736 16.9559 7.15649 109916 179666 -98386.2 -14367.5 109542 -81419 
165 1 43.8627 39.1796 16.9983 7.35414 325583 279720 279958 101395 -223840 111950 
193 1 48.2778 40.1007 14.5517 7.49884 -262321 182586 -89574.5 128871 -93362 -120009 
173 1 49.6306 39.2155 16.8643 7.65386 97134.3 44267 155440 232503 -266559 96999 
175 1 35.3503 42.313 14.6089 25.9767 -178991 549128 867826 -458731 -188144 83088.2 
180 1 36.5878 41.5397 16.92 12.096 58730 122192 423077 32669 25371.8 140307 
176 1 35.2174 43.8682 17.0144 10.5656 68960.6 51266.3 604864 -100420 -48656.7 237803 
184 1 39.4729 41.6128 16.8864 7.41985 113602 -353199 -429214 219993 -109824 301287 
178 1 38.0254 42.3176 14.5974 7.36065 -1.10021e+06 -997600 -559012 -156097 108925 115522 
179 1 38.0262 44.0586 16.9558 7.80244 -210976 -187670 42269.5 99223.7 61185.6 77351.5 
188 1 42.3979 41.6621 16.8616 7.43372 165280 346909 280484 -19824.5 -97285.5 76045.9 
182 1 40.9835 42.4593 14.5748 8.24189 -257595 -124029 67379 101020 -136763 -44440.7 
183 1 40.8676 44.1742 16.8453 7.1623 -53194.1 -77469.2 74061.9 87835.6 -59651.6 -133787 
187 1 43.7893 44.1689 16.8105 7.71658 58218.3 -200075 -55862.1 12071.2 79494.5 96003.9 
192 1 45.2351 41.7931 16.8332 7.44648 112272 -30689.8 -177380 233804 12804.3 255080 
186 1 43.8022 42.4766 14.5034 7.61316 -158969 -47440.6 -290562 -159180 -208070 27081.9 
190 1 46.7274 42.5687 14.5506 8.03075 256137 86123 303513 -224219 157358 -97341.9 
191 1 46.6697 44.2905 16.8486 7.81458 -210234 141995 -381454 -174075 56438.6 99848.7 
196 1 48.2645 41.6746 16.8908 7.1375 87670.2 -50559.1 23833.9 -207735 -64392.7 -142857 
194 1 49.6251 42.6923 14.4653 7.44768 -412650 -589873 -645093 104676 -320825 -14889.9 
199 1 33.9899 44.8949 14.6429 20.9221 -997380 -110310 595513 -231292 96965.6 -24274.9 
202 1 33.6949 46.3203 17.0679 11.0446 -118031 628588 177490 -227335 -193943 93933.7 
203 1 36.5462 44.7404 14.5445 7.50472 -1.97721e+06 -887773 -546507 -12803.3 828.244 -69326.8 
206 1 36.4412 46.4718 16.9317 7.12725 -281622 -16237.5 -433496 199473 61365.7 156812 
207 1 39.3989 44.7361 14.4671 6.56072 -322099 -345338 -20061 -6693.54 -165966 382971 
210 1 39.3805 46.532 17.0002 7.76108 -248667 -369472 -229949 159543 179862 250450 
214 1 42.2342 46.6899 16.8954 7.43251 -377316 -154566 65652.8 65785 -108465 169944 
211 1 42.3562 45.0067 14.435 8.5919 6041.92 -64168.8 197453 74788.1 61783.4 -88356 
218 1 45.0843 46.7613 16.824 7.01487 15235.9 -213270 -237712 367718 40401.8 55345.5 
215 1 45.2027 45.0823 14.5563 7.84329 -379295 -166816 -410510 -179222 -56402.7 -131779 
195 1 49.5093 44.2756 16.8519 7.49645 -327113 -158965 -228814 71818.3 71944.5 -92017.3 
222 1 48.029 46.7907 16.8421 7.4769 327661 112086 172776 57244.6 -107646 69113.3 
219 1 48.0859 45.0558 14.4762 7.67499 -429263 -517976 -179103 177288 -39521.2 18198.5 
197 1 32.5071 47.1986 14.7535 30.1344 -962551 148517 812638 -3730.12 59001.9 -160707 
223 1 33.5027 49.7452 14.5403 10.143 -242149 -101514 109388 -50739.4 134492 142014 
198 1 32.4092 48.8209 16.9304 24.5031 -291170 987683 1.02843e+06 -149174 95399.8 -94172.7 
200 1 35.0594 47.351 14.6434 7.30224 -1.86419e+06 -1.71529e+06 -615566 -504852 -19290.9 34604.7 
224 1 36.379 49.7176 14.5764 7.45633 -505042 -473005 -445098 -191788 174147 -34015.7 
201 1 34.9997 49.0147 16.9828 7.57177 -766785 173502 -289153 22392.1 153502 94130.3 
205 1 37.8602 48.9909 16.9639 8.00125 156009 117475 235723 51729.6 -16519.4 152925 
204 1 37.941 47.242 14.635 7.57304 -279763 1633.54 93961.6 -97626.1 -4077.58 25829.8 
225 1 39.2188 49.8082 14.5688 7.62113 204381 203966 -106248 -32681.3 -159729 -559.006 
226 1 42.1911 49.9231 14.5069 7.94962 555235 -176981 390264 111462 10947.6 60694.7 
208 1 40.7865 47.327 14.6009 6.91358 -58154.9 383468 155739 140707 -246208 -115507 
209 1 40.7958 49.0642 16.885 8.35932 169425 -348345 272975 215131 58534.4 -48609.2 
213 1 43.703 49.1547 16.8823 7.83785 79175.9 -500559 -10001.7 257804 161359 94769 
212 1 43.6717 47.5231 14.5094 7.18155 195433 -257278 -140199 15445.9 -258537 149212 
227 1 45.1811 49.9919 14.5939 7.61795 442662 -27424.1 -128467 -16880.6 -80051.9 157459 
217 1 46.6486 49.2725 16.8726 8.20105 145119 90756.6 400901 -60169.5 -81240.9 181226 
216 1 46.6629 47.4521 14.4925 6.95757 51931.3 95993.5 94770.5 88188.6 6845.87 27361.9 
221 1 49.5098 49.2981 16.9312 7.83694 -143297 242731 79445.1 22353.2 -174607 199858 
220 1 49.5395 47.5921 14.5267 7.56651 -299837 -239110 68786.7 99866.4 -120994 38487 
239 1 42.6401 35.1551 19.3877 18.2251 529744 471096 906195 -201345 -98500.4 34987.4 
230 1 44.2343 32.9279 19.4217 58.9899 768748 211093 917220 -162911 59136.3 -125572 
243 1 45.4228 35.2771 19.2276 6.57192 -702988 -1.23783e+06 -359978 -442938 -132320 -207348 
232 1 46.8515 32.831 19.2773 38.882 1.70655e+06 485908 1.01167e+06 -70956 59037.3 28962.8 
247 1 48.2351 35.2268 19.2457 6.70618 -336625 -1.13834e+06 -115044 51589 -148897 77799.5 
3049 1 49.6549 32.9633 19.1484 38.9702 1.34517e+06 -41261.6 732442 21931.2 1585.28 -84677.2 
234 1 38.3471 37.6965 19.3929 24.0427 677148 422886 1.17851e+06 -268604 -63390.7 4890.91 
236 1 41.1288 37.4612 19.3154 8.97962 195529 356171 468041 115983 -8260.95 16053.5 
240 1 43.9278 37.69 19.355 6.93725 -153296 -260657 -137926 243690 -89169.5 2116.76 
244 1 46.8086 37.6785 19.3096 6.81469 -96068 -765238 120167 -159526 96145.5 12140.1 
248 1 49.6822 37.5593 19.1837 7.64403 -71850.4 -52352.8 -112739 -201328 -154235 45277.6 
253 1 36.8732 40.0897 19.3281 16.7618 505510 323510 959225 -583327 2412.5 62294.9 
257 1 39.6947 40.0464 19.1595 7.17208 -436904 -354324 -469190 -77425.5 -16103.8 -177744 
261 1 42.473 40.1541 19.3959 7.8634 -135468 -7716.09 -254045 123916 -24761.5 -96449.5 
265 1 45.4193 40.2314 19.1829 6.86143 -225519 -465714 -385519 165037 135676 -241546 
269 1 48.2105 40.1322 19.2918 7.33888 -194859 -193905 -167017 -299616 -97358.1 -26383.8 
251 1 35.3053 42.4865 19.3318 18.6599 168613 323725 472127 -270881 52068.1 62193.8 
254 1 38.0514 42.4682 19.3109 8.04031 -644166 -837443 -197058 -82627.3 -69137.8 14698.3 
258 1 40.8994 42.6346 19.2847 7.26445 -121228 -879874 910.361 -3969.8 39423.1 -44402 
262 1 43.8511 42.6214 19.2349 7.42843 -50970.3 -415752 -409656 130922 -94081.7 87290.4 
266 1 46.7547 42.721 19.1851 7.44518 -84404.4 -356399 176077 -281096 145640 174016 
270 1 49.587 42.6002 19.2204 7.48787 -166642 -85816.7 35801.9 -71449.9 -114755 -50013.6 
275 1 33.9472 44.9085 19.4298 23.55 -249264 363206 279031 -242400 -212401 272274 
279 1 36.627 44.9329 19.356 6.91513 -980564 -1.03304e+06 -507924 -42107.1 -55351.4 29309.4 
283 1 39.5692 44.9951 19.3249 6.9961 -687220 -1.07506e+06 -428497 481184 56127 130700 
287 1 42.3577 45.0449 19.2519 7.64754 -284712 -165614 372711 69260 26683.2 77520.7 
291 1 45.2392 45.1579 19.1221 7.53864 280932 5524.78 339616 55198.9 123869 38389.7 
295 1 48.18 45.1183 19.2333 7.31765 -163221 -262240 77387.8 -140439 11322.4 -40219.7 
273 1 32.4942 47.4335 19.3958 22.8242 -178886 506525 1.50499e+06 -324403 51855.6 -37808.1 
299 1 33.6015 49.8304 19.3689 9.20799 103932 25482.5 579369 -71438.5 147708 -134385 
276 1 35.1183 47.403 19.2761 7.11787 -791645 -680057 18033.9 -53360.3 -29639.7 12952.8 
300 1 36.4788 49.8776 19.3872 7.74477 330964 -47109.3 368151 -39516 -141688 12449.5 
280 1 38.0049 47.329 19.2651 7.74745 -99020 -196732 45427.4 17973.1 147715 51064.4 
301 1 39.4047 49.9472 19.2635 7.55788 398738 32910.6 552690 131861 21087.1 13945.5 
284 1 40.9255 47.5009 19.3548 7.34355 300.565 -245551 27973 42800 -100908 65886.1 
380 1 48.1843 49.8905 24.13 6.62005 -762233 131943 -386284 125716 4613.48 48387.1 
288 1 43.7877 47.6197 19.2411 7.11887 113610 -139451 361091 118040 120076 7483.92 
292 1 46.6574 47.6221 19.286 7.58909 -261290 86252.9 368744 -47736.6 -44679.7 -113769 
419 1 45.198 49.9006 28.8017 7.56412 270705 234159 208640 -104221 30344 -50097.3 
296 1 49.4287 47.6684 19.289 7.37504 -129622 -237238 -109864 -121222 206125 134981 
420 1 48.1822 49.8848 28.7723 7.2718 -158087 224487 -482233 114858 -23818 -69184.6 
315 1 42.802 35.106 24.046 19.1997 578886 245034 564015 -202740 154755 -254294 
229 1 43.976 34.3093 21.704 15.605 609243 258963 923928 -191836 88534.7 -142327 
319 1 45.6508 35.1801 24.0816 6.2378 -853797 -1.87513e+06 -573418 -334610 29198.1 6383.84 
306 1 44.4444 32.9401 24.0633 53.4409 479317 -264551 1.02279e+06 -304904 22320.6 -49993.4 
231 1 46.864 34.2191 21.7411 8.65476 1.06063e+06 207145 992611 -8047.16 199457 56937.5 
308 1 47.0707 32.7529 23.9595 38.5055 709850 -171661 90911.6 79936.5 1352.55 -86464 
233 1 49.668 34.1816 21.5322 9.64119 790006 179864 776819 129134 62068.3 36779.6 
3122 1 49.7088 32.8022 23.8646 42.3722 858307 99763.2 1.01598e+06 27278.2 -175.932 61084.6 
238 1 39.6684 37.0026 21.724 23.7825 342963 -117296 986008 -266120 -65399.2 59748.2 
242 1 42.5328 36.7162 21.7171 9.8725 205733 454196 202842 -110534 50504.1 -67515.6 
246 1 45.3808 36.7117 21.6737 6.38468 -320829 -160907 -339770 -70415.3 21073.6 -14063.3 
250 1 48.1863 36.6725 21.688 6.31793 -282864 -103666 -211420 -63836.1 34836.9 -10000.8 
235 1 38.1296 39.1844 21.7022 11.4361 64258.2 -409.549 642946 40945.5 -33683.6 -218725 
237 1 41.047 39.2637 21.6892 7.07408 -208644 -493828 -123478 -247028 262159 60112.7 
241 1 43.9519 39.2941 21.6017 7.81015 -446812 -30784.7 -266804 223558 -275368 -182924 
245 1 46.7169 39.2319 21.6546 6.6815 -537539 -179981 -440459 -171546 42665.4 -140062 
249 1 49.5804 39.172 21.6099 7.31861 -3090.08 151777 432140 132774 -1254.13 -49792 
256 1 36.6727 41.6029 21.7491 12.5969 134581 349454 587852 -180673 33061.9 -130308 
252 1 35.1561 43.9707 21.6412 11.8306 367523 312397 444210 -22035 -117261 266699 
260 1 39.5405 41.6372 21.5793 7.64918 32302.7 -219068 22023 163270 -20924 32136.8 
255 1 38.0621 44.1039 21.6168 8.16933 247251 -399720 -240141 96797.9 -213324 83423.7 
264 1 42.4892 41.7273 21.6255 7.69487 -738579 -1.03509e+06 -837800 -57486.8 -187267 -571362 
259 1 41.0108 44.095 21.6607 7.19298 -104777 -493606 -473283 12965.9 -99241.3 -180813 
263 1 43.8837 44.1888 21.5875 7.682 -436475 -767441 13862.6 -54948.5 18831.1 -37203.3 
268 1 45.3214 41.8528 21.4902 7.79867 -648007 -388732 -235317 144537 18080 -176376 
267 1 46.7034 44.3209 21.63 6.77511 -520560 -171982 -115788 -42804 252678 -231856 
272 1 48.1784 41.6846 21.6018 7.37929 -111000 -149862 -300552 -213142 -72828.5 -82361.9 
278 1 33.7259 46.3963 21.7849 11.1343 371989 528087 869467 -196854 -12194.3 -39742.5 
282 1 36.5627 46.5076 21.6891 7.39988 232009 56670.4 339799 245986 69436.8 -163275 
286 1 39.412 46.5745 21.6823 7.14583 43485.2 121500 137340 -124488 88649 30013.6 
290 1 42.2567 46.6834 21.6517 7.00784 77636.7 -192839 19961.2 43838 -299312 104390 
294 1 45.2349 46.6567 21.7142 7.55179 111890 -478632 347046 46974 8125.12 -50709.2 
271 1 49.557 44.2322 21.5728 7.7348 -220687 125709 -296825 -53434.8 65728.6 108822 
298 1 48.1359 46.8099 21.6081 7.1765 -471131 -211065 -77795.5 -63311.4 5790.25 27053.3 
274 1 32.4288 48.8757 21.8019 25.4951 -92951.9 774977 1.12241e+06 -189754 -29181.2 79350.4 
277 1 35.088 48.9866 21.8193 7.68688 -782900 -189254 -5909.45 185591 49216.9 187805 
281 1 37.8679 49.0824 21.6979 7.15365 -53308.1 -4784.52 443587 46597.3 -60611.5 64391.1 
285 1 40.8513 49.1134 21.7384 7.92553 294512 -196325 574881 3001.4 109502 -79656.1 
289 1 43.707 49.0983 21.7469 7.13822 168443 -16459.3 298595 52527.8 123552 71819.7 
293 1 46.6058 49.1363 21.6674 7.41987 205905 -322764 190999 53728.5 170422 -142392 
297 1 49.576 49.273 21.7163 7.10595 -943356 -652426 -297829 26829.8 169167 -38853.4 
305 1 44.1679 34.2587 26.4602 14.2518 295723 363620 1.31086e+06 -383072 108310 -277405 
307 1 46.9781 34.0378 26.2682 7.66926 605929 433871 138439 155595 -55988.7 185210 
323 1 48.4609 35.1735 24.0471 5.96728 -729463 -1.20995e+06 -297074 -74014.1 89010.1 -9253.02 
309 1 49.7162 33.9709 26.395 7.75656 922928 872290 1.19313e+06 323256 -171501 -95353.2 
310 1 38.3226 37.5484 24.0203 27.4882 634964 379052 1.10337e+06 -286621 80234.1 -11223.9 
314 1 39.6817 36.8014 26.3106 24.7441 302281 -71377.2 910529 -658678 10680.8 -18450.1 
312 1 41.1714 37.4547 24.0574 8.44092 5380.55 -334155 -221773 18518.8 66564.3 -137629 
316 1 44.0284 37.6029 24.0317 7.14423 -666342 -1.02661e+06 -325322 -2430.17 5502.93 -373393 
318 1 42.5178 36.5254 26.3599 10.0163 240667 96724.7 49280.8 -26358.2 -112543 -326227 
320 1 46.8779 37.6591 24.0289 6.7324 -524372 -1.24884e+06 -260090 -92953.5 69054.7 -114158 
322 1 45.4588 36.6728 26.4654 7.6132 -35290.4 -373379 -320988 -8112.57 164655 -145206 
324 1 49.7607 37.5704 24.0375 6.98338 121911 -131865 177582 -400958 -73374.7 48229.8 
326 1 48.3333 36.6619 26.3873 6.98591 -271317 601718 -401905 10913.7 136348 -232068 
329 1 36.8984 39.9638 24.0293 24.7375 462566 932301 536343 -342191 92660.1 -35994.1 
333 1 39.6914 39.8569 24.0304 6.63839 -540430 -119003 -89755 -135847 166439 -160642 
311 1 38.1504 39.1404 26.4037 11.0554 79493 186534 749073 -323223 -37850.1 81681.3 
337 1 42.5302 39.9467 24.0721 7.83047 -584011 -415008 -93449.4 117028 -83799.1 -148988 
313 1 41.052 38.9936 26.4403 8.14913 -280178 -854203 -217681 -325120 82624.7 -304415 
317 1 43.9496 39.0236 26.3873 7.23398 -423033 -487998 -901953 184378 -126398 -170495 
341 1 45.3725 39.9952 24.0225 7.68253 -748434 -757075 -42291.7 -147894 28010.6 -196761 
321 1 46.8101 39.2049 26.3643 7.30789 -499903 -462729 -770146 -52945.7 124207 -161917 
345 1 48.2149 40.1124 23.9221 7.38632 -347280 -684087 -475268 -276234 -66106.2 29179.4 
325 1 49.6795 39.2874 26.26 7.76614 -274490 -213935 -6573.75 -162374 -6446.95 -162148 
327 1 35.4142 42.545 24.0267 16.5534 126882 658952 728242 -468352 72005.9 15423.4 
332 1 36.6467 41.5059 26.3421 12.8507 421179 619254 993759 -205596 36536.7 -162370 
328 1 35.199 44.0218 26.4722 12.7076 372802 493464 485654 -238561 174113 107808 
330 1 38.1239 42.4753 23.9759 7.33883 -452362 -12042.3 -106025 -177008 -98663.6 -205491 
336 1 39.5441 41.5087 26.3919 7.44897 62616.6 -212492 12449.9 29153.4 25507.6 -143839 
331 1 38.0987 43.946 26.3805 7.19506 472558 -282173 97066.6 237202 -124612 -3083.4 
334 1 40.9661 42.4215 23.9788 7.76895 -116094 124547 -100857 6914.49 97485.5 -28398.3 
338 1 43.806 42.4996 23.8596 7.70059 -258665 -59437.9 -349452 -165750 -248096 -256821 
340 1 42.4099 41.504 26.3805 7.32524 53906.7 -156559 68618.9 -19927.2 115147 -227444 
335 1 41.0259 44.0483 26.2817 8.21967 23549.5 109877 279168 -29853.3 -29398.4 -127705 
339 1 43.8229 43.9721 26.267 7.25572 51124 136978 525293 108938 -61436.5 8018.35 
342 1 46.6473 42.5251 23.9937 7.62993 -286467 -990743 15384 189214 -85044.1 -110921 
344 1 45.2985 41.6328 26.3894 8.18088 -143716 -429488 117764 147393 154521 23227.4 
346 1 49.5855 42.5463 23.8847 8.07545 -34722.7 -578594 57425.6 -63316.8 -46197 -88061.7 
348 1 48.1691 41.6836 26.3081 7.85332 -381573 -432902 -10364.2 136924 -86456.8 -8478.42 
351 1 33.8897 44.9507 24.0863 18.768 385615 814286 893739 -441489 -84211.1 153118 
354 1 33.8337 46.5147 26.4496 11.4767 126376 225749 367157 -449250 96401.3 101677 
355 1 36.6254 44.9594 24.1618 7.3912 -101687 -611378 269291 -147030 -34076.6 36905.7 
358 1 36.7123 46.4645 26.5256 7.22 -489539 -388039 -728601 -12993.5 8436.32 -140298 
359 1 39.5461 44.9434 23.9908 7.70514 201651 -32003.7 205438 26062.4 -40011 87960.4 
362 1 39.4528 46.4713 26.5021 6.94695 -667086 -246325 -45635 -55319.6 44334.6 -43851.8 
363 1 42.4313 45.0025 23.9621 7.22215 288946 -197923 -8544.92 -25449.9 -22192.8 60367 
366 1 42.3134 46.5788 26.4206 7.60967 -191219 37279.1 106140 39905.7 2422.34 55303.6 
367 1 45.4701 44.9445 24.019 7.0041 -718264 -1.08256e+06 -679307 230744 66115 103349 