ITEM: TIMESTEP
10000
ITEM: NUMBER OF ATOMS
5538
ITEM: BOX BOUNDS pp pp pp
0.382303 99.6177
-0.0776302 100.078
4.30239 95.6976
ITEM: ATOMS id type x y z c_csym c_2[1] c_2[2] c_2[3] c_2[4] c_2[5] c_2[6] 
5 1 49.8618 33.9349 4.97219 25.8863 59476 -386101 -462950 -98972.4 133660 203957 
1 1 42.2818 36.1623 5.07634 22.8744 1.25681e+06 827582 1.36576e+06 1246.96 9298.06 8341.76 
3 1 45.1998 36.1954 5.0978 12.3397 1.05354e+06 175773 -99059.7 -19221.2 103159 -286766 
19 1 48.1485 36.0813 5.15817 5.48656 529975 908296 -27479 168965 97783.4 -164086 
7 1 35.4152 38.9951 5.24643 35.0483 -381764 37860.8 728747 -468962 123122 -26666.2 
6 1 36.5752 38.0912 7.50682 36.2354 799964 264674 886685 -243857 313922 -113132 
10 1 37.9504 38.6957 5.14057 13.0516 -371371 237538 644438 129774 -83033.4 -31186 
29 1 37.9421 40.4285 7.39633 0.224384 -534195 -341039 -426379 -28927 -278470 124963 
14 1 40.8003 38.5217 5.05884 5.01506 739019 704758 2575.61 15267.9 -27310.7 -243592 
18 1 43.7796 38.6683 4.99455 0.412221 524157 618878 -115913 182972 165148 80115.9 
22 1 46.6839 38.7241 5.11837 0.190195 224755 929907 -463972 -14107.1 -154110 91078.6 
37 1 43.8111 40.5151 7.30058 0.592342 -340415 -77828.4 -670112 -19561.6 99802.5 392487 
21 1 49.5628 38.8143 5.19764 0.272846 113637 694411 -646582 285060 -189952 47191.1 
28 1 33.8386 41.356 5.18905 35.7308 860001 1.32379e+06 1.19684e+06 -714583 37503.1 11345.2 
24 1 32.4812 43.9693 5.15537 29.7239 213884 1.19951e+06 871297 -670818 133637 120788 
23 1 33.6792 43.0297 7.476 22.8489 259827 820068 1.14176e+06 -599107 281353 211068 
32 1 36.6541 41.2658 5.05951 0.425118 -673351 -1.10541e+06 -417425 -378785 -194409 81281.1 
27 1 35.1499 43.7382 5.13797 0.45368 -861645 -101633 -441484 46815.1 -114479 -146569 
9 1 39.4625 41.2358 5.09513 0.275285 -569788 452720 -781020 -21025.9 51893.3 -95857.1 
31 1 37.9497 43.8073 5.09431 0.0819877 -29522.3 327367 163280 -257581 -4837.61 -124665 
13 1 42.2496 41.1265 5.11454 0.824673 -238653 818302 -480333 196761 -113545 11146.7 
36 1 40.8164 43.8477 5.13043 0.229384 304667 -36881.5 -328438 16494.4 -72832.3 -286570 
40 1 43.7791 43.8969 5.1705 0.230942 213856 264922 -106727 104933 200730 -21141.8 
34 1 42.3468 42.902 7.30055 0.709519 405877 301202 -81311.6 120842 53455.2 111263 
17 1 45.1279 41.3208 5.16924 0.269306 138721 732376 -577986 -121479 298284 535889 
38 1 45.2489 43.1097 7.54335 0.559274 -81286.3 151048 -175934 -151830 102226 123219 
39 1 46.6001 43.9362 5.23829 7.21791 332233 621851 164727 -1384.18 33964.4 57424.1 
44 1 48.0633 41.4209 5.18243 0.0950738 385671 742701 -242926 -88411.7 184456 188288 
43 1 49.4603 44.0084 5.10204 7.00937 -331529 136217 -497215 -151121 92543.6 -8736.86 
50 1 31.1447 46.512 5.21985 36.4447 -658251 478924 779267 -318921 170315 206016 
54 1 33.6848 46.3938 4.98914 0.593041 -1.79225e+06 -609449 -729597 -239472 89053.9 -146783 
47 1 32.236 45.5003 7.48999 22.9403 367081 946202 924018 -142685 32241 83318.3 
58 1 36.4964 46.4493 5.03003 0.443828 -111481 289783 -426708 32764.6 -64560 8738.11 
51 1 35.0256 45.3951 7.37314 0.452018 -8331.17 -365018 -145560 58715.6 61859.9 -223000 
62 1 39.4269 46.3058 5.07255 0.14769 392105 331270 84910.8 124507 -63130.6 -111110 
35 1 42.3241 46.3547 5.09263 0.177296 -445244 104837 -497536 197875 -179367 116084 
1438 1 45.0852 46.4244 5.21536 20.8179 61838 596313 -110101 -203481 71460.8 178292 
70 1 46.5127 45.6305 7.4805 7.40624 -27292.4 -301936 -69492.8 -21060.2 -93555 -73778.2 
45 1 31.1503 48.0659 7.49657 42.1927 -230567 513855 723010 60606.1 55668.6 321437 
46 1 32.2727 48.8659 5.01026 11.9483 -137207 -187006 973043 -150471 21970.9 -80364.5 
49 1 35.1152 48.968 4.97255 0.418103 -354577 -386603 -675847 -120810 90389.3 172050 
52 1 36.5529 48.0166 7.34662 0.1911 -432715 -879.85 -173727 49648.7 -135140 -241380 
53 1 38.0012 48.92 4.89899 0.55474 119438 96166.2 -277589 -56456.7 28374.2 19275.9 
56 1 39.3873 48.0079 7.30208 0.185506 2060.76 296021 69766.5 47245.4 101436 -154764 
57 1 40.9533 48.9053 5.1031 0.395468 272655 496696 -226963 -47301 45124.6 74304.3 
60 1 42.244 48.1159 7.41661 0.139191 -421756 -175099 -721571 57130.9 -204532 59793.3 
66 1 43.7734 49.0138 5.15842 6.84762 112436 226688 -128273 149911 117622 -80119.4 
87 1 42.4011 34.7043 9.58083 31.4513 597013 -190230 691547 -92339.5 76022.7 -14388.3 
91 1 45.306 34.5856 9.59311 12.9456 1.12093e+06 171094 191954 -68320.9 173541 118993 
4 1 48.3589 33.4668 7.18768 42.586 256127 -426420 647436 -186958 34035.6 -345938 
95 1 48.3437 34.7546 9.58278 12.3841 732542 99861.1 -81146.1 -216455 47493.4 236761 
82 1 38.1036 37.3357 9.78286 31.3352 856209 107141 1.2717e+06 -322894 425178 -127280 
8 1 39.4586 37.9043 7.43597 13.1917 1.00406e+06 378785 598483 -375981 87098.3 -54693.5 
84 1 41.0123 37.0121 9.81136 6.63959 626684 281280 322508 -59569.4 -34377.3 -226842 
11 1 41.1401 35.6722 7.44201 32.2574 278353 78618.6 408361 -254423 68689.5 -157786 
12 1 42.3695 38.035 7.38341 0.776204 -305446 -202259 244404 -268317 -20319.4 2998.4 
15 1 43.8357 35.4876 7.35702 20.9134 227858 32027.2 217740 -278761 224461 -111300 
16 1 45.2025 37.8953 7.38231 0.248295 -559074 -49563.1 -452891 -38766.9 9165.51 51432.8 
2 1 46.7332 35.4796 7.40953 12.4466 -59540.8 -552654 -453792 206242 187411 -3285.56 
88 1 43.8389 36.9779 9.74333 0.575323 -456225 175058 -151701 -143592 -48809.2 -123191 
92 1 46.6512 37.1226 9.68967 0.226646 -488082 73035.7 -674514 -52529.6 198674 -28372.3 
80 1 49.7475 35.6349 7.35441 0.779438 -887234 -1.72152e+06 -1.1632e+06 -352355 271972 299045 
96 1 49.5523 37.2933 9.78138 0.360774 -126097 72414.3 -734986 -145626 -192345 70970 
78 1 48.0379 38.0233 7.48109 0.413748 -325994 138733 -579994 89954.1 56923 185539 
25 1 35.1441 40.4587 7.50893 23.0837 395572 742688 983701 -423562 246054 -166474 
101 1 36.5606 39.5351 9.86327 21.4253 362079 407193 789365 -171585 89159.6 -79066.4 
105 1 39.3842 39.6739 9.68109 0.483034 -15631.5 -137421 -151659 -121569 -42159.9 31506.3 
33 1 40.8072 40.3952 7.37009 0.187154 -235245 28895.4 -464625 164892 156422 427680 
109 1 42.3067 39.6379 9.71899 0.152447 467442 506673 955.754 -106990 -25816.5 -14782.1 
41 1 46.6507 40.5318 7.41381 0.156742 -301017 282115 -617323 83754.2 -10414.4 324412 
113 1 45.2625 39.6409 9.66949 0.282216 -273773 20846.5 -281182 72773.9 -2556.59 26231.8 
20 1 49.5624 40.6744 7.45336 0.283706 -284944 -212242 -596903 142363 -53998.8 203934 
117 1 48.0445 39.7197 9.72629 0.178439 -688334 -639041 -715054 172213 -6440.1 -36728.8 
26 1 36.5 42.9059 7.46568 0.115284 -156555 -465760 -290150 164633 -116232 128883 
99 1 35.1569 42.0805 9.82424 20.7268 318784 1.19321e+06 995539 -452305 231642 146319 
30 1 39.3692 42.9192 7.46706 0.178487 252587 208602 33538 643.076 -111472 -25482.9 
102 1 37.9005 42.0614 9.8373 0.256669 -88066 12929.9 -193948 406566 -175921 -19105.3 
106 1 40.8688 42.1843 9.71765 0.237268 169365 172096 -135454 106169 -211963 58938 
110 1 43.7384 42.0987 9.74213 0.251375 95481.3 222023 -108064 -55050.6 -39452.7 121780 
114 1 46.6652 42.1462 9.84156 0.255076 -299539 -204483 -263479 63555.7 -168953 199074 
67 1 48.0733 43.1331 7.51244 0.167036 -191546 36732.4 -81937.7 42518 -73834.7 108919 
118 1 49.5013 42.2308 9.85685 0.199194 -822627 -237441 -286185 -95594.4 61013.3 -108686 
123 1 33.7213 44.6815 9.80063 20.6706 347171 696253 787505 -577469 224532 96270 
127 1 36.5181 44.5896 9.79515 0.151151 -58934.6 -358249 -255567 131922 43852.3 -178778 
55 1 37.8863 45.4276 7.39479 0.183207 174930 141818 -83532.7 7651.93 -21804.6 -192418 
131 1 39.4079 44.6599 9.72227 0.23392 53689.9 -101425 -114575 127300 -102133 -171522 
59 1 40.8277 45.4845 7.41761 0.117744 151369 374525 -617257 27154.6 -134769 -71159.9 
135 1 42.3219 44.6996 9.64031 0.59614 -415998 -156064 -244483 -110956 -48782.4 105438 
63 1 43.7044 45.6204 7.42882 0.204128 -594649 -177585 -915372 -138671 283160 184386 
139 1 45.0891 44.699 9.87539 0.261991 -484005 235088 -288923 -60005 -105613 -392402 
68 1 49.4137 45.6242 7.40338 6.91084 207072 132278 29377.8 -145885 14210.6 -48063.9 
143 1 47.8827 44.7557 9.87562 0.428485 -156860 66863.9 16330.7 -109932 -46211.3 -117549 
48 1 33.7615 48.0131 7.3086 0.586124 -1.16343e+06 -243371 -546009 111536 81860.5 -191531 
121 1 32.2907 47.1944 9.73368 26.927 61746.7 186721 798150 -375055 41647.1 78079.8 
147 1 33.4472 49.5648 9.64083 6.16263 453402 -128417 339327 -127987 242967 -147792 
124 1 35.0525 47.0633 9.6945 0.158053 -350294 -333962 -202794 -165078 -167247 14562.2 
148 1 36.4333 49.5874 9.69196 0.110217 230537 -165345 -516218 -114491 -80368.1 -25156.3 
128 1 37.9004 47.0891 9.66166 0.0771312 -127307 -169712 -187707 108653 -180173 -7940.25 
149 1 39.316 49.6479 9.64681 0.190362 -219277 96920.5 -29477.1 20182.7 6037.57 111608 
132 1 40.8146 47.1442 9.72519 0.154315 -799862 -476427 -287931 -105637 -115922 -48218.2 
150 1 42.1392 49.6483 9.75156 0.25679 -3092.28 -401415 -290133 104467 34489.5 -158105 
64 1 45.0747 48.0893 7.47614 7.02041 -423517 -510261 -563293 12556.8 -179488 -185086 
136 1 43.5405 47.2472 9.81851 0.675294 -870770 -609585 -972680 -5817.54 95142.3 92149.4 
151 1 45.1564 49.7607 9.67586 0.301033 566886 -90132 -268326 207879 -252413 -18104.6 
140 1 46.4957 47.2972 9.76264 0.169485 -67209.3 -121028 -516679 300493 3182.03 -14253.6 
65 1 47.9001 48.0856 7.46981 13.1647 875039 749667 334578 -3985.47 -37902.9 18215.3 
144 1 49.3683 47.2317 9.73791 0.227287 -168825 -424550 -272508 210022 62652 -18832.4 
152 1 48.1733 49.8003 9.64393 0.845103 571.532 28153.9 -146750 41491.8 -3599.36 26715.6 
77 1 43.9105 33.9968 11.7687 35.8876 500427 -373968 1.01949e+06 -168400 313236 -65435.1 
79 1 46.8867 34.0481 11.7933 19.1753 1.05866e+06 -199404 964735 -144640 143444 -58819.6 
81 1 49.7373 33.9805 11.9209 12.7289 830926 71710.4 488862 -109921 243434 -29108.3 
86 1 39.4237 36.4925 12.0736 27.4682 995414 545599 1.31397e+06 -278185 131597 38371.5 
90 1 42.338 36.0929 12.1191 9.74701 504520 288606 8036.85 152538 -12156.1 195098 
94 1 45.2536 36.2173 12.032 7.67484 -277738 -803758 -694835 -4828.85 -90428.1 237976 
98 1 48.2253 36.3553 12.0583 8.21755 -292090 -371545 -244934 -235516 165678 -78917.3 
83 1 37.9754 38.8419 12.1972 11.6213 19916.8 226359 253915 -63769.5 -73473.4 72594.3 
85 1 40.8855 38.8042 12.0128 7.80282 -16065 114460 -242498 -210790 95184.4 -358000 
89 1 43.7373 38.763 12.0081 7.70151 50475.6 400694 -350896 31196.9 22214.7 -164746 
93 1 46.6799 38.837 12.0078 7.91582 -91999 -135541 -685240 -50069.7 136321 -46795 
97 1 49.5927 38.9295 12.0589 7.83569 -87483.1 -234618 -712708 46893 148255 -50887.6 
104 1 36.4013 41.1434 12.1246 13.1954 482790 539052 450842 -128994 -41212.9 1532.72 
100 1 35.0164 43.7812 12.138 12.0491 1968.57 584678 746272 -399149 -158306 14694.9 
108 1 39.4106 41.3124 12.0842 7.74767 -384657 -426052 -416672 83345.9 -94401.9 76953.5 
103 1 37.8364 43.6685 12.1856 7.42931 -173313 -322232 -835399 476797 -5025 -232396 
112 1 42.1883 41.3439 12.0679 7.15569 -681011 -565824 -181472 -121210 39006.3 95074.6 
107 1 40.7654 43.7831 12.069 7.53296 -389356 -426551 -375980 132414 -48879.9 -88168.1 
111 1 43.5701 43.7361 12.1293 7.09206 17549.7 -138065 9796.43 26441.4 192485 -12679.2 
116 1 45.0801 41.2455 12.0399 6.99364 133797 -91650.9 -420958 180995 12581.2 380703 
115 1 46.5653 43.8878 12.2078 8.19048 373688 266738 -314751 159506 136766 -18805.1 
120 1 48.0083 41.3176 12.1184 7.31818 183523 -149210 -664584 88783 -135475 208398 
119 1 49.4976 43.9551 12.1317 7.58847 105207 87884.7 -405335 -5887.35 125452 314571 
126 1 33.6732 46.2561 12.1355 12.6776 -422182 150056 521206 -221680 -115378 -380423 
130 1 36.4325 46.2027 12.058 7.49461 -617267 -205100 -422713 156046 109193 -67750.8 
134 1 39.2302 46.2553 12.0359 6.73523 93113.8 90182.3 -257620 174699 159347 -78287.8 
138 1 42.2559 46.2956 12.0026 7.23812 147942 52428.8 -673888 -121230 178204 160478 
142 1 45.1356 46.3365 12.0596 7.65556 -97137.9 110547 -640767 211813 32116.1 1135.41 
146 1 47.9492 46.4269 12.1472 8.05594 -21154.5 134817 -201784 -84548.1 -21771.6 -170170 
122 1 32.3265 48.6261 12.0835 29.7992 -193988 508190 859284 -35898.4 -108356 -248689 
125 1 34.9883 48.7512 12.0313 8.43004 -627709 -305682 94601.6 -250551 94888.1 -124589 
129 1 37.872 48.8118 12.0193 7.62017 -345323 269651 206674 159883 -107097 1024.99 
133 1 40.6546 48.7616 12.0761 7.07592 156100 301842 61752.5 186930 183169 -100213 
137 1 43.6225 48.8577 12.0849 8.27894 727809 229779 -101989 237739 -94415.4 -123956 
141 1 46.5573 48.9998 12.0163 7.90972 551000 779860 278497 111165 -318751 -231061 
145 1 49.4444 48.8799 12.0673 7.9368 118985 9058.64 -189372 142209 19754.1 -210652 
163 1 42.8533 34.6511 14.3286 22.95 180311 -16398 960687 -349803 -249350 363193 
167 1 45.4839 34.6818 14.2951 10.6845 155380 -115563 898509 79897.8 -237343 443573 
228 1 48.0213 49.7652 14.2833 7.43179 302461 586959 111509 -14274.2 15141.2 -124650 
171 1 48.3257 34.5337 14.3303 9.90658 395638 606925 425621 84319.3 96945.6 237441 
158 1 38.3127 37.3189 14.461 29.4846 285283 -125776 581579 -367874 16763.4 -964.407 
162 1 39.5391 36.4559 16.7942 28.4257 599415 310259 1.12768e+06 -281769 -34947.1 10854.6 
160 1 41.0212 36.956 14.4254 9.13683 435805 702184 675356 -116846 140664 -145358 
166 1 42.371 36.2025 16.7696 9.00226 704869 459929 643962 73336.5 -216434 107721 
164 1 43.9093 37.0778 14.3684 7.88248 -283262 -683763 -379047 -107156 -169227 -179212 
168 1 46.8135 37.155 14.36 7.5962 -264127 211218 -175857 -289841 127239 76938 
170 1 45.3403 36.4721 16.6755 6.59413 -186069 -261936 -289635 374103 7560.21 297205 
172 1 49.6401 37.3022 14.3329 7.57381 -113038 -184123 -90032.4 345683 -119087 59215.3 
174 1 48.214 36.4162 16.7129 7.68271 -341588 -389537 -186520 -193357 -161274 387410 
177 1 36.6213 39.5855 14.4206 18.9375 964777 875972 724312 -460500 231918 -25855.9 
159 1 38.0262 38.7282 16.7745 12.6103 473770 245380 823268 -389378 136117 -300687 
181 1 39.6178 39.6193 14.3932 6.6418 -373598 -645659 -504884 -290765 -109547 -142697 
185 1 42.3763 39.5353 14.2897 7.29725 -617973 372871 -390832 131603 14966.7 -87782.5 
165 1 43.8689 38.7876 16.6308 8.11193 446321 192153 319864 292406 13055.7 -50968.1 
161 1 40.9648 38.7374 16.7209 7.88602 223300 -326593 98474.3 -66223.5 99367.1 -84497.5 
189 1 45.2379 39.6314 14.2495 8.48769 -102064 -171570 -284871 -126050 166244 75439 
169 1 46.8257 38.9146 16.7791 7.65732 192298 186899 356761 31914.1 259610 12959.2 
193 1 48.1533 39.648 14.3469 7.44907 -144048 -236468 -226380 183162 134064 145667 
173 1 49.6617 38.8775 16.7706 7.50902 204879 202255 -7166.23 -112971 162753 186169 
180 1 36.4563 41.1736 16.7748 13.1941 587053 843213 1.14511e+06 -143188 399469 -121380 
175 1 35.0719 42.0482 14.372 19.8157 1.03452e+06 1.41139e+06 1.26127e+06 -293995 124879 -29764.8 
176 1 35.2388 43.7034 16.7647 12.764 266358 819372 1.27132e+06 -280970 113511 190897 
184 1 39.3539 41.1441 16.7538 6.24562 49528.3 -671791 -818476 394887 47802.6 64155.9 
178 1 37.9482 42.0023 14.4173 7.51835 179198 -196937 -408694 34030.7 -61821.6 136040 
179 1 38.0449 43.6273 16.7651 6.80748 -80631.8 -327815 -471584 248673 -51867.9 124888 
188 1 42.2328 41.2542 16.6391 7.45735 252614 54980.7 97807.7 206674 68828.4 123482 
182 1 40.8486 42.1781 14.4431 7.21684 -229994 -742049 -791583 -129239 -222526 -26700.8 
186 1 43.7648 42.1096 14.4652 7.52449 105844 540091 -54334.7 139960 13839.2 194736 
183 1 40.9144 43.7201 16.7875 7.28617 -154834 -332389 -628868 353545 66662.9 -89811.3 
191 1 46.6616 43.8749 16.774 8.23201 -201613 -73612.7 -381018 -35056.7 292143 55688.5 
190 1 46.622 42.1194 14.4902 8.12525 -104245 421870 -103911 -205788 239156 83904.3 
192 1 45.2367 41.3 16.7247 7.95103 432393 100630 -328128 62131.6 132554 260312 
187 1 43.8028 43.8123 16.8478 8.04043 127295 385060 94669.2 99923.1 39807 -25272.4 
194 1 49.4652 42.3227 14.4139 7.55734 104604 -126251 -472304 -85572.9 443618 -38781.8 
196 1 48.2333 41.4876 16.7483 6.80087 248569 242971 22211.9 -122125 152104 235201 
199 1 33.6836 44.4638 14.5192 20.9874 787869 1.28652e+06 1.06693e+06 -345355 17229 -177609 
202 1 33.6951 46.1291 16.7636 11.8928 348136 370098 -133504 -143108 103460 132389 
203 1 36.5364 44.553 14.3913 7.77563 -234855 -105499 -749584 360564 252094 -193005 
206 1 36.6878 46.1832 16.737 7.38809 453027 308096 60490.2 -146883 181980 45262.5 
207 1 39.3684 44.5692 14.3813 7.87149 -695015 -516914 -550337 138052 20048 -256694 
210 1 39.4972 46.1396 16.6977 7.02127 -199766 -127445 -310173 -195428 -136479 32240.4 
214 1 42.3648 46.3583 16.7118 7.04154 -401436 31452.7 -671662 46396.6 5198.44 105437 
211 1 42.217 44.6161 14.4193 7.54668 -187053 -277663 -81095.2 -101152 197367 -148164 
218 1 45.2027 46.3753 16.8198 8.03197 -119015 17588.9 27756.4 -107829 156817 -91508 
215 1 45.114 44.8073 14.3752 7.49449 331543 449130 119600 84368.2 187075 -45435.9 
195 1 49.5527 43.965 16.7614 7.594 -58953.9 -17375.6 -344105 -52257 267399 -11519.2 
219 1 47.9844 44.7393 14.5342 7.67116 -254540 -330743 -543208 -125192 27418 68425.1 
222 1 48.1085 46.3819 16.868 7.91194 -149381 -648387 -527807 84844.3 228896 -33148.3 
197 1 32.4788 47.0917 14.5329 29.0725 -648672 749230 713269 25808.3 17594.5 -82588.5 
198 1 32.3489 48.5708 16.7887 29.2722 -182684 893203 912475 24114.5 -98665.4 -166308 
223 1 33.4557 49.662 14.3051 9.49322 518742 900031 508778 -197261 -148904 -318164 
200 1 35.0322 46.9601 14.4159 7.99571 -943477 456690 -294486 -55712.5 116806 -156145 
201 1 34.9549 48.7373 16.7383 8.0108 -287006 228668 323553 118737 143045 74016.9 
224 1 36.3877 49.5603 14.3918 7.89294 643977 329673 156337 94514.8 -90488.8 84118.4 
225 1 39.3261 49.5887 14.3974 8.13329 217500 236602 -51535.3 -78488.5 214083 -24855.2 
205 1 37.8854 48.7639 16.6997 7.26633 357918 310832 -361261 2572.78 275238 -127752 
204 1 38.0173 47.087 14.4162 7.30352 41793 -53906.5 -152583 27661.6 207590 -111316 
208 1 40.8602 47.0659 14.4174 7.69252 -765311 -79936.4 -144146 96347.4 59638.3 200689 
226 1 42.2013 49.6544 14.4548 7.9997 295324 200452 287661 67153.4 82318.7 -79718.1 
212 1 43.6029 47.2188 14.3666 7.39176 -226900 7955.43 -38514.9 124898 245543 179513 
209 1 40.8017 48.7295 16.8016 7.78968 483895 213550 -10300.7 130369 102235 71648 
227 1 45.1117 49.7851 14.4294 7.84048 396864 60404.9 363610 34777.1 87205.9 -92412.1 
216 1 46.5714 47.2774 14.4626 7.53899 266820 153071 88366 -26628.1 221265 -318246 
213 1 43.7462 48.9067 16.7976 7.66037 -183916 -175796 -591695 12490.4 12773.4 -125672 
217 1 46.6376 48.8195 16.7654 7.76067 -279765 -254704 -461422 -12966.2 -132482 -262726 
153 1 43.951 33.983 16.753 17.5788 675285 377575 827978 53684 -77310.3 -66513.3 
220 1 49.4168 47.1404 14.4839 6.70973 39897 45148.6 -66192.2 -196300 -10364 -65140.8 
221 1 49.4926 48.9433 16.7424 7.82546 -436394 -689007 -1.09559e+06 388022 452505 -325689 
155 1 46.8376 34.0641 16.6057 10.3756 757178 12783.2 187264 -146128 -39494.9 -245458 
157 1 49.7473 33.9329 16.5974 9.90887 737577 143695 431993 -143566 -276584 35490.6 
239 1 42.7006 34.7179 19.1536 18.1033 296031 -281284 366993 -361789 -14358.7 -85523 
230 1 44.3267 32.5345 18.9023 64.7355 445181 -276801 496876 -236025 -69064.1 41602.1 
243 1 45.5376 34.8066 19.033 7.3104 -1.08346e+06 -1.74591e+06 -536117 -278460 63821.2 -27581.2 
419 1 45.3112 49.7914 28.3983 7.70878 -434644 122629 -209280 -113499 -10371.9 -5223.72 
414 1 49.5499 47.2653 28.5144 7.39245 -263816 205675 -323118 -154645 -95848.9 50353.1 
232 1 46.9594 32.43 18.8068 37.797 583904 75522 720338 55283.8 -22025.3 -21007 
247 1 48.3585 34.8193 18.9759 7.02213 -948403 -1.70502e+06 -817826 288614 101334 291694 
3049 1 49.5619 32.5554 18.9888 42.2415 666208 -278925 916105 340925 -135732 -21071.6 
420 1 48.1093 49.7726 28.3962 7.32291 94109.9 199049 156295 -97597.6 101734 172773 
234 1 38.4665 37.3016 19.2492 31.5642 -896083 -21197.4 964271 -89926.3 36613 6802.65 
236 1 40.9523 36.9742 19.1895 10.1328 -949597 458513 367121 161086 102659 20628.9 
240 1 43.8683 37.1089 19.0448 7.68209 -21345.4 -406027 198168 -1690.54 143972 33708.6 
244 1 46.826 37.2725 19.1337 7.78707 -131786 -606497 -144036 38973.9 -37566.4 129620 
248 1 49.6989 37.2975 19.0558 7.66501 -257154 -161333 -210402 -237212 -119121 93358.5 
253 1 36.9059 39.6507 19.1548 16.7286 318455 682107 519751 -147819 -103752 2864.4 
257 1 39.6941 39.6666 19.045 6.24591 -672493 -793221 -225393 -175696 -38452.4 277996 
261 1 42.4648 39.566 19.1077 7.39451 -72795.5 614375 566675 205559 -59898.1 -20927.2 
265 1 45.3628 39.6813 19.0745 7.5739 -6887.87 -255846 -223823 240059 96093.2 120717 
269 1 48.2909 39.7954 19.1277 7.47435 20943.1 -558406 -186948 22791.7 -4288.99 -227353 
251 1 35.4353 42.0588 19.0785 24.5707 491940 1.34416e+06 718666 -284720 56198.6 13899.6 
254 1 38.2105 42.1713 19.0987 6.19877 -634453 -968078 -515435 31153.9 88436.5 120017 
258 1 40.9906 42.141 19.1003 7.80326 -573319 -249038 11489.4 -46481.3 -36543.4 242084 
262 1 43.8357 42.1039 19.0547 7.64843 1314.97 240688 -30005.5 54155.4 166261 243528 
266 1 46.7337 42.1601 19.0701 7.64146 -86503.7 -347857 -129834 -33141.2 99973.4 76115.8 
270 1 49.6648 42.2036 19.2151 7.93516 127025 85774.2 76324.7 -154979 173427 -91035.5 
275 1 33.8788 44.6551 19.1127 18.3753 721758 969911 981605 -404581 -67098.4 172343 
279 1 36.7106 44.6512 19.1422 7.09967 -196406 33510.7 -43899.2 357815 -35655.7 41532.6 
283 1 39.4828 44.5853 19.1121 7.98844 -899166 -750274 -367450 -425393 27498.4 -94600.2 
287 1 42.3288 44.7223 19.0544 7.62415 -375210 -430235 -516130 38448.8 32780.7 -131919 
291 1 45.2475 44.6538 19.1257 7.7472 -158848 288668 -468350 48287.8 -88411.3 105388 
295 1 48.108 44.6586 19.1084 7.44868 67323.1 269686 -281114 -61877 158919 93044 
273 1 32.5763 47.0692 19.075 21.4067 -274939 366806 832640 30317.5 60655.8 48963 
299 1 33.5254 49.6267 19.0735 10.058 576331 496708 149179 -79824.1 -158630 -300238 
276 1 35.225 47.0986 19.0446 8.09485 -728922 77837.8 23771.6 -105439 -58708.3 62957.7 
300 1 36.6225 49.6348 18.9813 7.81342 -40449.6 -578714 -441843 375807 164333 281407 
280 1 38.0532 47.2639 19.1565 6.76433 -489815 -570058 -218320 -16889.9 -57070.4 48396.9 
301 1 39.4438 49.6885 19.0851 8.10246 -227269 -276603 -224459 -240421 306119 94179.4 
302 1 42.3664 49.7775 19.0052 7.74873 23162.2 251348 -467180 247413 132497 343.073 
284 1 40.8609 47.0577 19.0325 7.52855 -350067 -162898 -257813 251540 2934.52 96904 
288 1 43.7663 47.202 19.0819 7.91667 -16764.8 -15774.9 -415262 -226892 265628 106441 
292 1 46.6738 47.2463 19.1089 8.00492 57001.7 127001 -607736 101197 134964 16728 
303 1 45.1899 49.6986 19.0196 7.78552 -118671 208338 -502207 -84260.3 -8600.02 16193.8 
296 1 49.6183 47.3056 19.1077 7.95662 -262879 -443555 -533710 177785 18097.4 -130345 
304 1 48.205 49.758 18.9117 8.12025 -536564 -447733 -1.24965e+06 258110 215693 -13480 
229 1 44.1668 33.8207 21.3327 13.4814 597498 423121 751138 -342288 -70723.1 105560 
231 1 47.042 33.8511 21.239 9.34747 722371 320142 429203 -258837 66493.6 480578 
233 1 49.8102 33.9876 21.3156 11.7723 301646 163619 459329 39845 -15494 -55249.4 
238 1 39.6978 36.5286 21.5673 24.3183 564471 379242 538916 -639133 -64709.5 99221.6 
242 1 42.5548 36.2185 21.4223 10.1105 395236 611383 -53402.5 -303747 -21924.3 -67229.6 
246 1 45.3687 36.3882 21.4533 7.27842 -241625 11773.8 -479691 115319 86136.1 163110 
250 1 48.1976 36.3922 21.3975 6.78799 180401 99329.6 -101504 17431.9 -90114.5 141958 
235 1 38.0351 38.9051 21.4802 10.7583 410637 438677 534614 -241513 -138753 -201598 
237 1 40.9972 38.8291 21.4747 7.83077 802531 326476 359998 -280239 101210 19351.1 
241 1 43.9616 38.844 21.4314 7.72732 16625.5 238913 17367.9 9459.22 -83480.7 183515 
245 1 46.7415 38.9955 21.438 7.49088 -507401 -203949 -221482 26143 -33860.7 -126143 
249 1 49.6474 38.8898 21.4899 7.14289 462857 161242 -98087.9 137843 707.732 87487.1 
256 1 36.6275 41.2842 21.4429 12.709 16366.1 400860 752481 -160722 -84444.9 -178522 
252 1 35.1753 43.774 21.4329 12.8881 334299 872115 963775 -198008 -4553.97 240762 
260 1 39.458 41.324 21.491 6.93224 206183 139496 -178297 237324 -11913.9 78779 
255 1 38.0023 43.7943 21.5085 6.95774 90844.5 -460787 -596575 173699 -1081.66 203956 
259 1 40.9864 43.9137 21.4599 7.63682 -328456 -79613.5 -163312 213959 -141610 3261.83 
264 1 42.3926 41.3847 21.4132 7.71962 336652 392710 185757 -36048.5 7357.14 184835 
263 1 43.7814 43.8945 21.4046 7.38971 -441716 -36101.4 -308817 146041 279805 141209 
268 1 45.2851 41.3921 21.3993 7.60255 7013.1 -269534 -172721 133998 65781.5 68797.1 
272 1 48.2076 41.398 21.4285 7.64258 104551 -183546 -487428 -184122 201174 -36369.3 
278 1 33.7842 46.2715 21.4784 11.7533 271157 441888 461719 -143727 -375815 209763 
282 1 36.6673 46.3486 21.4321 7.87845 -233195 130726 -599321 84553.5 12565.3 -21490.5 
286 1 39.4657 46.2295 21.4437 6.98256 -251783 -393981 -478894 286766 188415 52807.3 
290 1 42.4284 46.4005 21.37 7.44695 -30265.8 -296428 -270589 78208 139434 136639 
267 1 46.6786 43.913 21.4122 7.29326 121468 -33989.3 -467621 31646 82550.8 126736 
294 1 45.3027 46.442 21.4566 8.2552 -128065 131876 -135111 28799.3 30390.3 186127 
271 1 49.6656 43.9169 21.4849 7.93721 123043 17555.2 -194264 -185292 56214.8 25963.6 
298 1 48.1367 46.3906 21.4104 7.97314 137377 436646 133463 -26057.6 -107494 41138.8 
274 1 32.4102 48.5842 21.4815 24.9103 579801 949786 1.40743e+06 159721 36168.8 55685.3 
277 1 35.1634 48.9263 21.301 8.2829 239725 217996 45237.4 48458.3 -107550 171436 
281 1 38.102 48.883 21.3836 7.77872 -278744 -308238 -1.15617e+06 -30341.5 113455 -154408 
285 1 40.9431 48.7946 21.4005 7.58579 67823 291758 191705 184375 -65828.2 -73571.9 
289 1 43.831 48.968 21.4117 7.65381 -134911 39593.6 -52027.9 244369 136387 -75747.2 
293 1 46.6781 48.9765 21.373 7.96686 373999 344638 341141 -42284.2 3121.95 -51407.7 
297 1 49.6205 48.9651 21.3316 7.86761 455258 328345 145111 102221 94226.3 -169772 
315 1 42.7853 34.6675 23.6968 18.9369 681580 704797 768436 -245912 -143699 254425 
319 1 45.6048 34.7448 23.6649 6.91811 -574709 -1.95754e+06 -829542 -395286 -183237 181512 
306 1 44.4528 32.4715 23.6681 57.1315 350213 -360695 566979 -347420 81049 -52839.8 
305 1 44.1146 33.8476 25.9482 16.921 240513 127686 542264 -232527 135050 76894.2 
308 1 47.0649 32.4391 23.5051 34.6955 532025 -32463.1 522430 169904 16069.3 147537 
323 1 48.512 34.8474 23.7635 6.58218 -388380 -1.1045e+06 -218812 327919 187952 -24217.1 
3122 1 49.6585 32.5175 23.6445 43.2154 653182 -39779.6 910304 261175 61602.6 -52333.8 
307 1 46.93 33.8396 25.9523 5.99684 987030 247627 819180 258565 3318.71 81991.7 
309 1 49.8525 33.7693 26.0725 6.68299 1.30525e+06 577901 1.13776e+06 138792 -30821.8 -119865 
310 1 38.469 37.3143 23.976 22.7848 110878 -133812 815755 -328603 -109252 -22459.4 
314 1 39.6835 36.6221 26.2073 27.1614 674577 329692 735706 -307466 -255899 198488 
312 1 41.1487 37.0477 23.8199 9.19669 16724.2 855227 472848 -115777 -170163 -16725.5 
318 1 42.6004 36.244 26.0934 10.1758 608549 588972 835720 -462019 45868.8 78881 
316 1 43.9562 37.2546 23.7597 6.87721 -95242.2 29048.6 -493517 14711.5 84842.4 -154467 
322 1 45.4257 36.2796 26.0688 6.08058 -626642 -370749 -746480 240349 39152.7 247888 
320 1 46.8593 37.2482 23.8147 7.65855 46246 -319932 -352913 -188221 -57811 -110227 
324 1 49.7924 37.342 23.7846 7.24192 215131 -193517 246127 -260064 -83925.4 238121 
326 1 48.1972 36.3491 26.0883 6.16292 26817.1 437562 -546155 198104 -115693 -35678.2 
329 1 36.8652 39.6637 23.8551 18.6077 -5587.66 1.09468e+06 735270 -391187 57651.3 -140155 
333 1 39.5272 39.6935 23.8377 8.46879 -596432 -599989 -316610 -435519 -110779 62721.7 
311 1 38.083 38.8806 26.2114 11.7463 528229 654604 458480 -74554.5 121447 -114643 
337 1 42.4934 39.7704 23.7943 7.50746 264207 335673 -185027 210450 82690.1 -74297 
313 1 41.0631 38.9348 26.0683 7.73166 51786.3 270271 -193317 -357904 9232.44 53333.1 
341 1 45.3485 39.7993 23.7786 7.16485 -80414.6 -183453 -777919 -6815.92 -18674.7 -267047 
317 1 43.902 38.7448 26.086 6.45106 -90552.3 -77332.7 -601585 122003 85968.1 -127204 
321 1 46.7806 38.9299 26.0805 7.02379 -56675.4 -161548 -612934 378680 173719 106453 
345 1 48.2612 39.7697 23.7919 7.82298 -207523 -313551 -567035 -12289.3 3558.06 -71292.4 
325 1 49.6811 39 26.1251 7.0644 435036 295827 -164977 203015 -106766 228660 
327 1 35.3515 42.2729 23.6972 18.0688 421989 1.16814e+06 737451 -471578 26054.8 26108.6 
332 1 36.6832 41.3761 26.0749 12.264 361044 688020 1.12102e+06 -557833 77208.8 -31399.6 
328 1 35.2137 43.8836 26.0241 12.5596 217293 1.09091e+06 682911 -466636 -3978.64 14299.1 
330 1 38.0853 42.2136 23.7859 7.6993 -620524 -482979 -1.02821e+06 154568 77582.5 134743 
336 1 39.5134 41.4616 26.0913 7.08172 199127 329112 -311344 295111 -103169 -35813.7 
331 1 38.0494 43.8624 26.0977 7.61371 -329958 -420199 -1.08305e+06 130919 71553.2 -224230 
334 1 40.9583 42.2148 23.8021 8.40183 45569.5 9839.06 -251944 -36393.9 -21168.2 -18047.7 
340 1 42.4882 41.3969 26.0313 8.22725 26927.7 -484.223 -572493 -255262 31753.4 -151940 
335 1 40.9947 43.9983 25.9984 7.59085 -272419 -201319 -639310 -80890 -187180 -65738 
338 1 43.942 42.3249 23.7642 6.94907 143677 -267219 -309791 216572 84671.9 105441 
342 1 46.8175 42.3123 23.7619 7.42354 -140611 -218841 -193596 5240.06 88062.1 19762.6 
344 1 45.3547 41.3278 26.0311 7.00472 60283.3 -619554 -740677 214234 12941.8 -47338.7 
339 1 43.9367 43.8855 26.1171 8.18015 -494299 -385237 -321266 -39200.1 32860.5 -55882.4 
343 1 46.6872 43.8591 26.1388 6.87481 -398209 -365613 -990046 140530 -168906 -3656.08 
346 1 49.6918 42.2659 23.7958 8.18186 -150904 -288363 -398629 -60118.9 308841 54670.3 
348 1 48.3519 41.4304 26.0501 7.56819 205821 -241178 -323683 38631.6 118430 46585.6 
351 1 33.9069 44.8236 23.7371 17.341 402845 1.04695e+06 630260 -500179 -74625.4 338529 
354 1 33.7531 46.4831 26.0934 12.4984 280598 812285 602586 -172302 -116529 -6607.63 
355 1 36.6452 44.7559 23.7992 7.51374 -503256 -197494 -582669 14278.1 187409 57181.1 
358 1 36.6047 46.4737 26.0377 7.9993 354302 313398 -138537 113302 85796.9 -144622 
359 1 39.5107 44.7616 23.8323 8.08202 -329976 -340941 -894560 57641.7 -176967 194630 
362 1 39.496 46.395 26.1169 8.01443 -150717 -481529 -753771 240745 192675 -199283 