ITEM: TIMESTEP
0
ITEM: NUMBER OF ATOMS
5538
ITEM: BOX BOUNDS pp pp pp
0.382303 99.6177
-0.0776302 100.078
4.34804 95.652
ITEM: ATOMS id type x y z c_csym c_2[1] c_2[2] c_2[3] c_2[4] c_2[5] c_2[6] 
11 1 41.7085 36.0402 7.50996 36.6543 320440 182776 720631 -524264 225280 15286.3 
1 1 42.9033 36.6623 5.30855 21.0284 370474 203297 1.24513e+06 -293158 276478 -73365.9 
3 1 45.55 36.7706 5.01014 12.1186 191851 433807 1.22755e+06 3690.18 -22415.4 162219 
2 1 47.1778 36.164 7.51162 12.472 435617 588067 1.20691e+06 -330393 244851 -101660 
80 1 49.9933 36.3309 7.59188 0.928704 -443243 -1.07609e+06 486192 -349912 -118824 -381948 
19 1 48.3627 36.8681 5.17961 5.63832 491513 545044 555335 129088 406330 340072 
7 1 35.809 39.2666 5.27259 38.0122 449846 308808 1.41535e+06 -313472 146224 -21944.5 
10 1 38.4917 39.1571 5.21204 13.7888 779385 205930 1.53986e+06 -208325 94382.2 -52404.5 
14 1 41.401 39.0768 5.1589 6.50137 -24816.7 860542 987157 -124882 -145393 -6394.03 
16 1 45.6019 38.5774 7.47384 0.62472 -447253 -383889 597484 -318257 64285.5 202446 
18 1 44.0561 39.1319 5.16002 0.677256 -830268 288352 441640 -42107 29549.8 146778 
37 1 44.0672 40.9822 7.60089 0.415403 -488838 -594213 571385 96026.8 -67431.1 5723.08 
22 1 46.8854 39.3601 5.11338 0.302328 210234 -2234.01 313427 28374.6 334282 5774.96 
41 1 46.8728 41.0687 7.56854 0.258511 -340379 -472901 89689.4 19435.6 -2443.6 219127 
78 1 48.4465 38.7254 7.6 0.535049 56622.2 -142024 806410 79999.9 -30282.6 -215040 
21 1 49.9208 39.3318 5.13365 0.419592 595360 414379 538924 235247 140234 -5079.68 
28 1 34.4418 41.5834 5.25859 30.7849 -80545.6 1.25315e+06 1.03026e+06 -433668 -100377 136789 
23 1 34.2833 43.2417 7.58017 20.5418 -51407.3 767111 1.35369e+06 -274371 141230 232770 
32 1 37.0553 41.6135 5.21818 0.269048 -1.2181e+06 -301294 487054 -152269 -61008.7 39135.6 
9 1 39.8329 41.5873 5.25934 0.196317 -318593 402101 627901 -236631 -18297.4 -156048 
13 1 42.6039 41.7132 5.17699 0.242206 65538.6 162758 502760 206754 90856.4 -86118.7 
34 1 42.5674 43.2644 7.55347 0.377868 -283123 -347326 213568 359342 2360.64 -90896.7 
17 1 45.5319 41.7575 5.18978 0.350823 -405541 -350819 181287 127934 -151704 100143 
44 1 48.3152 41.7902 5.26438 0.30823 -327389 -112260 254958 -143098 148010 47130.4 
50 1 31.6968 46.5079 5.21677 35.041 -434007 314767 1.13085e+06 -185547 99668.3 187278 
24 1 32.9763 44.1966 5.34701 29.4325 176584 904205 1.05213e+06 -352191 -48637.9 -11033.1 
54 1 34.2844 46.6202 5.14311 0.805805 -1.13251e+06 -182901 725124 -352624 28087.3 206802 
27 1 35.6557 44.1196 5.21011 0.324837 -610024 257365 759154 76126.1 74996.6 123201 
58 1 37.1116 46.7095 5.31369 0.84036 -374472 -304121 873038 -64151.3 -109895 194801 
31 1 38.4387 44.1926 5.28198 0.453368 -383834 -128882 867610 -301267 86450.3 52034.8 
62 1 39.884 46.4824 5.26029 1.14341 -1.20063e+06 -693081 -208487 -138645 -219683 249292 
36 1 41.249 44.1182 5.1873 0.298002 -468858 -727693 -1008.84 568671 -45721.9 -32631.3 
59 1 41.159 45.7516 7.54372 0.429186 -422518 -186583 -60361.7 12117 -326315 98201.3 
35 1 42.6345 46.7835 5.21299 0.644574 -867914 -463628 -643932 -169638 176771 178842 
40 1 44.1073 44.2654 5.23431 0.389737 -423656 152009 241617 68218.2 -60061.7 -71074.4 
39 1 46.8378 44.1675 5.288 6.95548 -719433 65524.4 700745 -105857 7499.15 212890 
1438 1 45.4646 46.7254 5.25789 19.6198 699410 912698 857413 -94495.9 -7982.88 36909.6 
43 1 49.6009 44.3103 5.12578 7.01821 -464592 -377384 -104592 -360610 -12526.7 99831.9 
68 1 49.4658 46.0114 7.54008 6.67366 -341199 -988127 475676 -321681 -86793.8 51625.1 
46 1 32.6757 48.9625 5.16005 11.2275 328181 426116 1.57427e+06 -119961 169071 227094 
45 1 31.597 48.1777 7.49987 43.5283 -136231 785235 934248 -87176.6 34537.7 309662 
49 1 35.5448 49.141 5.24629 0.176353 -444188 -160159 685017 -280922 -6032.83 217559 
53 1 38.2474 49.1275 5.29377 0.308164 -949046 -212932 270215 -288908 -38831.4 279231 
57 1 41.0422 49.1403 5.34114 0.397315 -160662 -16720.1 202670 51211.9 -130402 36052.3 
66 1 43.9421 49.196 5.25232 6.90606 -201549 -866897 -513330 -543274 -58273.9 171659 
64 1 45.1934 48.3551 7.51175 6.84421 -666748 -802204 82723 -307753 -178288 140653 
65 1 48.0371 48.3668 7.47451 12.7009 78312.2 249495 1.12999e+06 198255 51269.7 383.147 
87 1 42.924 35.2643 9.86037 34.5885 815559 148766 1.16465e+06 -359702 213703 -291436 
91 1 45.7552 35.1486 9.9959 13.2783 920297 469829 1.34577e+06 -169707 27076.6 -30956.2 
4 1 48.8703 34.0022 7.69956 49.1209 984125 19365.7 1.06401e+06 -225714 -42766.3 -115268 
95 1 48.4715 35.2023 10.0253 11.72 848187 593330 1.05985e+06 117114 -136480 -233657 
82 1 38.2898 37.6822 10.0914 32.9417 912553 238606 1.72747e+06 -43203.5 208336 -346650 
84 1 41.1199 37.385 9.98753 6.09249 1.07839e+06 333349 830005 105581 -369172 191694 
15 1 44.4175 36.1449 7.62891 16.0079 49144 -364991 917368 4751.81 45099.1 -282441 
88 1 44.1988 37.5815 10.0677 0.648731 -160882 -546095 138357 -26679.2 -206093 -167636 
92 1 46.9855 37.6695 10.0368 0.385378 -40098.2 189567 629275 101086 23232 39747.9 
96 1 49.9043 37.8454 10.0129 0.381182 -98144.5 442590 -265234 -20482.1 82300.3 -41589.9 
25 1 35.5668 40.7897 7.62271 23.4419 456071 753205 1.29118e+06 -199342 -1914.06 385908 
6 1 37.0486 38.3962 7.65187 37.2934 959232 334667 1.66316e+06 -531363 313721 -398384 
101 1 37.0279 39.9971 9.93041 19.5154 206849 191761 836079 -457815 398890 157920 
8 1 39.9066 38.2399 7.64374 11.7129 1.53265e+06 634251 1.52065e+06 -229447 -409289 -116143 
29 1 38.4209 40.6574 7.65521 0.384253 -356727 -333201 -19472.2 -287252 302371 -7324.92 
105 1 39.8881 39.9093 10.1065 0.536026 -176071 -81490.5 370716 75240.6 -248871 38373.7 
12 1 42.8117 38.4062 7.66054 0.584194 -497302 -927659 200094 -31390.1 -117277 -190874 
33 1 41.2289 40.7385 7.63712 0.151877 -273438 94128.9 577887 54492.3 -97378.9 17659.4 
109 1 42.7112 39.9128 10.0601 0.448132 -395996 7954.51 -61686.4 373027 -159876 -25143.2 
113 1 45.5759 40.0975 10.0104 0.28161 -739024 -410043 241013 308217 54731.6 131984 
20 1 49.8899 41.1039 7.61365 0.349344 43563.4 -646133 520615 -201542 -92460.2 207834 
117 1 48.3351 40.2422 9.96414 0.217263 -349714 -209342 169423 130435 74779.6 -96528.2 
26 1 36.9736 43.2279 7.70652 0.15381 -820690 131374 494063 123394 -280149 -20307.4 
99 1 35.4797 42.4774 10.1876 20.2343 581585 587486 1.32205e+06 -352160 104176 47637.1 
30 1 39.7076 43.2402 7.71831 0.409604 -458437 198391 273327 -33739 -1969.44 77610.1 
102 1 38.3376 42.3667 10.0101 0.23559 50875.9 -229352 16040.5 -91502.7 -110460 182198 
106 1 41.2312 42.4114 10.0113 0.23627 -110787 -344438 214097 -137913 -199052 65696.2 
38 1 45.3723 43.4546 7.67767 0.407705 -399653 -678254 288090 -100444 -35946.5 -1314.29 
110 1 44.0942 42.409 10.1137 0.794223 -235413 -384851 338389 151794 -90385.7 102672 
67 1 48.2749 43.5467 7.61663 0.16307 -616008 -407904 56753.5 -213983 -205273 250085 
114 1 46.9531 42.7005 10.1098 0.534431 -1.11826e+06 -485812 74847.2 282559 -70380.2 -38627.4 
118 1 49.6187 42.8172 10.0406 0.308439 -1.06433e+06 -187462 46494.8 -177152 -8220.25 171986 
47 1 32.8458 45.7228 7.6769 21.756 27850.6 751832 997940 -210876 -42989.1 19696.9 
123 1 34.1419 44.927 10.014 20.2195 -355188 545172 704481 -339524 63701.5 356142 
51 1 35.5782 45.7563 7.75433 0.229774 -986560 -179418 193827 220941 -67519.4 96484.5 
127 1 36.8343 44.8577 10.1078 0.240251 -546416 -476356 -77941.7 -5807.52 -278235 21677.1 
55 1 38.3113 45.7939 7.68431 0.252828 -720435 -357356 206921 -193903 -111218 68471.2 
131 1 39.7868 44.8831 10.0647 0.293703 -40378 -59013.9 476403 86981.3 -211720 -121244 
135 1 42.5427 44.8436 9.96354 0.51585 -330789 306617 792208 -183231 237.006 -24561 
63 1 43.9747 45.9218 7.62508 0.302582 -1.02498e+06 -718728 351191 128373 -78109.9 11757.2 
70 1 46.6839 45.9474 7.67147 6.90302 -927914 -382941 370567 -44930 -19124.8 139562 
139 1 45.3287 44.963 10.1083 0.448021 -421550 45068 206401 153058 -252992 -36288.2 
143 1 48.1326 45.276 10.1209 0.604489 -573105 -516763 313910 -26907.2 -26670.9 126700 
48 1 34.2109 48.2357 7.7234 0.471494 -1.2543e+06 193057 363787 89222.2 121657 198805 
121 1 32.7297 47.4037 9.9193 26.569 144067 875146 1.51828e+06 -280441 339734 148794 
147 1 33.9183 49.8755 10.1322 6.37202 649360 679671 1.71527e+06 24618.9 94910.1 -141434 
52 1 36.9331 48.3553 7.78296 0.385657 -1.47078e+06 -112756 374751 -221643 199770 -32901.1 
124 1 35.4505 47.3779 10.1051 0.0990079 -611429 -193517 -458772 70063.4 -406244 128534 
148 1 36.7721 49.9959 10.12 0.319507 -14091.1 164125 36792.6 -121554 -117660 12795.1 
56 1 39.5784 48.2093 7.69261 0.387093 -950140 1134.31 480786 -187687 14819.7 124233 
128 1 38.2524 47.3315 10.2489 0.901164 -812872 -156021 -452042 -207285 109295 1925.83 
149 1 39.5776 49.8651 10.1243 0.316793 -461521 200861 153093 -31895.1 123072 232453 
60 1 42.4245 48.259 7.65423 0.282448 -590304 -320874 2984.03 88917 -75742 -46687.1 
132 1 41.0397 47.3984 10.0606 0.135509 -271604 300451 536045 -110318 141881 143099 
136 1 43.8529 47.5125 10.0744 0.206204 -216417 44999.7 121940 -160714 -93636.1 -210586 
140 1 46.6559 47.6569 9.96791 0.380608 -283587 -533982 763221 235443 -19529.4 -259474 
151 1 45.1741 49.9676 10.052 0.322368 -287766 -217704 198199 20357.6 255693 141833 
144 1 49.5453 47.7125 9.8646 0.476074 -504583 -1.30908e+06 290574 26181.6 62051.2 -55263.6 
77 1 44.3283 34.5867 12.1978 33.0829 442096 163529 1.13726e+06 -145469 249576 -66709.9 
79 1 47.0883 34.4957 12.4588 19.6987 632373 307752 599011 -239875 171605 -271244 
81 1 49.89 34.5151 12.3884 12.0608 328106 -196222 970756 -283096 -160122 -341071 
86 1 39.7626 36.8563 12.3727 24.6589 600328 393513 1.25045e+06 -203071 -94815.9 -78417.8 
90 1 42.5787 36.6591 12.2798 9.49014 541436 288536 3017.07 325409 73341.5 216288 
94 1 45.6187 36.9477 12.4449 7.32099 -393819 -393805 -499185 -254865 -366297 -132226 
98 1 48.4597 36.9017 12.3673 7.50606 -927725 -614804 392.441 -24617.8 58904 29679.4 
83 1 38.2599 39.0625 12.5027 12.5229 598171 487155 1.15056e+06 -102671 -58902.3 -215800 
85 1 41.242 39.1871 12.429 7.39027 121244 -342964 -170779 23839 -2440.63 324310 
89 1 44.1175 39.3694 12.3697 6.62492 -347527 -210255 -176903 66097.1 -283135 54895 
93 1 46.9786 39.4089 12.3914 7.09039 -823447 -631265 -177823 -203809 -135336 99912.8 
97 1 49.7494 39.3952 12.3883 7.85841 -628716 -806667 408097 -367272 25556.6 -215680 
100 1 35.2357 43.9917 12.4218 12.4567 627709 575352 355904 -58097.7 26992.3 109269 
104 1 36.7971 41.4901 12.4083 12.4313 381033 942017 1.08123e+06 -311361 -69101.4 -105336 
103 1 38.1445 44.0113 12.4914 7.47134 713317 478655 311160 316544 -266050 239476 
108 1 39.679 41.5881 12.4391 7.42932 46378.9 -88223.1 54064.7 184659 -40596.6 145456 
107 1 41.0338 44.0862 12.4631 6.87497 -212830 -490868 413959 218702 -107624 78448 
112 1 42.4986 41.7178 12.4595 6.75325 -633494 -520784 -171260 79188.9 -168966 -205906 
116 1 45.3772 41.7777 12.4916 7.01574 -472334 -669478 -329107 -39441.9 -66648.5 44946.8 
120 1 48.2881 41.8732 12.4486 7.61499 -1.2152e+06 -574313 -35433 -123513 -126191 131542 
126 1 33.885 46.4505 12.4928 12.6871 497475 678178 1.18665e+06 -158162 -85212.9 -61521.4 
130 1 36.7733 46.5716 12.4277 7.71944 152214 161101 -343899 251896 243544 84960.9 
134 1 39.7091 46.5727 12.4842 7.56145 -111524 160384 -225376 173248 -143705 118423 
138 1 42.541 46.496 12.4583 6.97035 -434459 -214356 773234 149367 -47348.9 108887 
111 1 43.8693 44.2115 12.5902 7.22864 -500505 -918679 347180 370701 -20812 292920 
115 1 46.7271 44.2971 12.4422 7.04458 -473750 -266057 -171452 136268 202.394 -83522.3 
142 1 45.2962 46.7163 12.4781 8.21615 -478357 -165454 687579 127254 -84118.5 -36343 
119 1 49.5413 44.4117 12.473 7.24597 -618916 -253326 83365.6 12656.6 -255280 -78639.5 
146 1 48.1411 46.8347 12.5269 7.90687 -376697 -362438 542448 136389 -99209.2 -337222 
122 1 32.6057 48.8494 12.4642 30.1149 335371 892376 1.61263e+06 20743.7 -138820 63191.7 
125 1 35.3324 48.9949 12.5339 8.19919 -476403 -225715 -6481.19 154963 16039 -100944 
129 1 38.1574 49.0902 12.3956 7.49144 -556378 -66390.3 -669428 -132398 208104 -158631 
133 1 40.993 49.1443 12.4227 7.94507 -129495 133517 88064 -148482 -113419 3988.33 
137 1 43.8623 49.1291 12.3304 7.65848 -40932 157314 159016 12316.2 129588 -60328.9 
141 1 46.7047 49.2216 12.4311 7.29004 -311972 -78676.2 208151 -7827.12 -20190.6 -62039.1 
145 1 49.5365 49.2966 12.4268 7.07076 -563265 -741212 614828 66997.7 57696.7 44151.3 
167 1 45.7225 35.0389 14.7414 10.8386 -720245 264926 227121 -9561.75 16877.4 -105663 
153 1 44.0396 34.3479 17.0042 16.281 286311 -327096 499342 -226218 -276327 -53278.6 
155 1 46.924 34.352 17.095 11.0352 101048 -353952 -423011 752.232 2530.4 -172557 
171 1 48.3747 35.1764 14.8147 10.1159 -815775 -439780 -121885 -160095 -23181.9 -203277 
157 1 49.6918 34.0775 17.1075 10.3569 810836 750365 1.15446e+06 53404.7 -400942 -144512 
158 1 38.504 37.5337 14.88 34.9311 336756 441665 962907 -100359 -176180 80898.8 
162 1 39.6776 36.7662 17.0959 27.7375 1.09025e+06 603966 1.52755e+06 -266625 -352739 95182 
163 1 43.037 35.3387 14.6057 21.8709 169970 -801395 718136 -268135 -179530 160004 
160 1 41.227 37.429 14.6167 9.97145 178062 99983.6 565779 -1289.73 -92899.5 23320.5 
166 1 42.6034 36.626 17.1109 8.97045 353214 64071.1 470503 46878.8 38357.9 -277852 
164 1 44.0934 37.6669 14.7394 8.03876 -608596 -1.33673e+06 16163.1 -422334 61517.3 -143639 
170 1 45.4642 36.6875 17.0499 7.65905 -796451 -1.06451e+06 -413519 246996 -17728.5 155534 
172 1 49.7672 37.63 14.8388 7.32588 -536171 -196120 402367 69717.9 -10637.8 -82462 
168 1 46.9467 37.6351 14.7112 8.03184 -820724 -354074 -540044 137415 -226306 -85186.8 
174 1 48.2785 36.7275 17.138 7.97087 -1.01336e+06 -648003 -182774 -403477 -51268.8 -223902 
177 1 36.9986 39.9324 14.8694 22.1225 274744 792767 534874 -382734 -61752.1 -28148.1 
159 1 38.1199 39.0654 17.1395 10.9175 355155 248282 623639 -63057 -161471 -164105 
181 1 39.7398 40.0011 14.7343 7.63016 -427827 -347012 -383433 -152848 -68875.4 -170420 
161 1 41.108 39.0665 17.1714 7.36753 397049 -75406.9 138115 96521.7 167663 245670 
185 1 42.5875 39.9563 14.9294 8.12852 -250343 -366092 129290 230002 -106717 -142963 
165 1 44.0675 39.1204 17.2176 7.40242 -194378 -313550 -512004 179193 -130954 5837.62 
189 1 45.5217 40.0785 14.8564 7.50783 -508996 -850018 6480.61 -123127 -60407.9 -26641.8 
169 1 46.9103 39.2064 17.2117 7.35394 -779228 -353145 -139088 -40350.5 -118787 75783.6 
193 1 48.3195 40.1674 14.8501 7.23546 -761755 -432059 46990.2 996.203 -3821.36 -156968 
173 1 49.6744 39.1336 17.2812 7.24109 -1.3282e+06 -622882 -102650 -212159 -112642 -156805 
175 1 35.4365 42.4473 14.6128 20.5878 350263 804893 975357 -448814 -7335.31 82554.4 
176 1 35.2972 43.7672 17.1969 12.1086 438556 765268 1.52807e+06 13624 150244 -53476.7 
180 1 36.7208 41.4291 17.1966 12.3262 62612.8 -85606.3 917330 -84695.9 20585.2 -325507 
178 1 38.17 42.4417 14.7862 7.14275 -122642 -593889 648.38 42508.1 -128773 177835 
179 1 38.151 43.8408 17.3321 7.44186 -269493 -643197 -805415 314891 197540 -11785.9 
184 1 39.5996 41.4627 17.0969 7.45932 79881.8 -456116 -260883 369503 389496 -262160 
182 1 41.1381 42.4561 14.894 7.63206 -372526 -728535 -420158 -100614 100148 -208917 
183 1 41.0024 44.0503 17.179 7.3604 -513949 -149863 -614520 222493 391294 -53459.4 
188 1 42.543 41.6205 17.2096 7.97254 -101830 -307109 -334023 -48105 -33095.7 -58535.4 
186 1 43.9418 42.4654 14.7754 7.72582 -494433 -189978 -392458 -8362.74 119137 151142 
187 1 43.8372 44.0852 17.2751 7.35199 -279137 -349495 -566117 57881.3 -294788 -69695.8 
190 1 46.839 42.5306 14.9501 7.82951 -616707 -792934 142114 -62652.8 50885.4 -53313.7 
192 1 45.3918 41.6803 17.216 7.59501 45225.2 51196.6 61670.4 -2342.52 212926 -82064.4 
194 1 49.6444 42.6884 14.8805 6.98935 -749671 -851951 76373.9 -167848 73296.4 11570.3 
196 1 48.3299 41.6815 17.2491 6.76554 -357907 -162248 -151528 -147828 -249466 -72414.7 
199 1 33.9265 44.8303 14.7525 26.7818 549981 1.03437e+06 988820 -439865 117819 -68097.6 
202 1 33.8987 46.1959 17.1901 11.1026 675023 903666 1.45934e+06 -124124 -74864.6 -192486 
203 1 36.697 44.8642 14.9217 7.77689 75647.6 -583753 495566 279128 34540.9 -320710 
206 1 36.7858 46.3968 17.1965 7.53426 71802.1 228485 -45043 391539 -119905 -311208 
207 1 39.583 44.8797 14.8358 7.67664 -94181.8 -22391.4 334709 79074.9 -210953 10201.1 
210 1 39.5492 46.4726 17.3016 7.41346 13887.8 241169 140196 236292 -39923.4 52061.7 
211 1 42.4127 44.9531 14.9977 7.6301 -80720 -181048 -374067 -169633 134472 55706.5 
214 1 42.4955 46.6094 17.267 7.66654 24266.1 101331 103075 -8827.84 21279.2 -282457 
191 1 46.8112 44.1913 17.3045 7.484 -91104.4 70554.2 -367324 -146799 250844 65070.9 
215 1 45.3931 44.9837 14.9211 7.74846 -386238 163815 250427 13718 -82528.5 -226766 
218 1 45.2731 46.6846 17.1816 7.89239 -417189 237171 -62316.5 129811 100469 144437 
195 1 49.6209 44.2769 17.2561 7.37678 -818955 175397 142134 -213971 -280095 -138136 
219 1 48.0932 45.0647 14.9526 7.38753 -789916 -359537 38514.1 -17033.5 89506.5 19770.1 
222 1 48.1002 46.7448 17.2751 7.8105 -62897.8 -339.421 -59728.6 -15861.1 -172701 -268875 
198 1 32.6853 48.6413 17.1802 25.5368 78438.5 763944 526629 -70279 -186589 -289187 
197 1 32.5787 47.3517 14.8372 34.1845 377042 623799 1.24792e+06 -334799 57072.1 -293758 
223 1 33.8252 49.7275 14.8326 9.84677 249091 194029 232370 105823 172273 143836 
200 1 35.3207 47.261 14.8067 7.87194 54852.3 -256894 110184 242379 -98403.6 -11715.1 
201 1 35.3887 48.8316 17.2111 7.12231 -632824 238569 144409 191497 -173213 -276801 
224 1 36.7818 49.8321 14.8234 7.43277 44899.1 192953 90429.8 68068.2 -161598 68104 
225 1 39.5824 49.9315 14.8054 7.83128 -367889 -282042 370866 80756.4 86693.7 56823.6 
204 1 38.267 47.3874 14.8313 7.60973 -46456.9 144568 611839 168648 58088 -47501.2 
205 1 38.1333 49.0456 17.2377 7.45164 -582260 224436 418714 2139.78 -61906.1 -9997.37 
209 1 40.9589 49.0502 17.3507 8.09422 249388 323393 865095 47263 60428.5 4369.58 
208 1 41.0156 47.4678 14.8453 7.60799 -278374 355645 780362 72323.4 -191791 -37244.7 
213 1 43.8495 49.1597 17.2123 7.6148 -198886 -561045 -85467.9 145910 -147073 -110478 
217 1 46.7235 49.2635 17.249 6.98914 -9362.16 -25382.1 139295 122512 148940 -168304 
216 1 46.688 47.5659 14.9326 7.89293 -411388 -325399 -72082.9 -81924.3 55118.9 64743.6 
212 1 43.8271 47.5001 14.8658 7.12549 -74584.4 290951 280537 -56422.3 -57995.9 -79848.6 
221 1 49.6421 49.192 17.2388 7.05241 -121768 -175727 -434249 -352033 226408 14806.1 
220 1 49.5367 47.5841 14.8551 7.3853 -453372 9030.57 182058 -71089.5 -202195 -145800 
239 1 42.6292 35.01 19.4805 16.6754 366281 -69998.3 730149 -327048 -73986.3 -188209 
230 1 44.1064 32.7609 19.0554 62.6003 -107472 -195537 417377 -213819 -82689.4 135774 
243 1 45.4396 35.0084 19.3635 6.78991 -1.53727e+06 -2.21936e+06 -767744 -48618.4 120599 -216827 
232 1 46.6484 32.6287 19.2893 36.8564 77182.7 -524984 272417 85329.7 -186308 -224089 
247 1 48.1977 34.9243 19.5622 7.06013 -1.07807e+06 -1.34712e+06 -337381 117341 -161492 -340672 
3049 1 49.259 32.6161 19.4287 47.7009 695772 741.352 1.20798e+06 397588 14039.3 -27986.9 
234 1 38.4427 37.4432 19.6412 29.7152 245030 -4125.38 1.21085e+06 -485225 -107736 -130933 
236 1 41.1792 37.3853 19.4793 10.0464 -574798 -803313 -186179 380854 148588 -151374 
240 1 43.9703 37.3926 19.4769 7.24936 -1.09902e+06 -852180 -317421 -87472 120129 -15767.4 
244 1 46.763 37.4596 19.5373 6.47584 -394108 -584096 100323 -174323 -10080.8 -313727 
248 1 49.627 37.4071 19.6224 6.91638 -279661 -180157 -378150 -347631 -69425.8 -324426 
253 1 36.8856 39.7726 19.5113 19.5508 445479 688953 880079 -351776 139973 -34594.1 
257 1 39.7194 39.721 19.5917 7.24903 -787231 -1.07059e+06 -437153 142825 149926 27071.7 
261 1 42.5685 39.9199 19.5278 7.56878 -593743 -335229 -242944 8120.75 76696.4 -17451.5 
265 1 45.381 39.9222 19.6046 6.95285 -843143 -520818 -433893 26634.1 66827 -101476 
269 1 48.1615 39.9963 19.6325 6.31884 -647638 -237211 -339769 -235469 -58784 -279032 
251 1 35.4612 42.1561 19.5788 26.9774 413876 543896 881172 -122526 37767.3 -68690.6 
254 1 38.2897 42.1693 19.458 7.20194 -541411 -791090 -812682 339233 65996.9 194040 
258 1 41.1097 42.37 19.5691 7.84371 -189354 -175535 203080 98346.4 224697 -58873.2 
262 1 43.9914 42.4268 19.6317 7.44334 -585303 -917413 -273267 72169 73224.6 -145891 
266 1 46.7705 42.5157 19.6752 7.02701 -310803 -177575 28762.6 -31314.4 -61162.4 -122991 
270 1 49.6339 42.4382 19.6552 7.56965 -478304 -126305 -212874 -143445 102060 -180899 
275 1 34.1145 44.5539 19.6179 22.9976 -27472.3 389859 710958 -497327 8056.49 -128022 
279 1 36.8262 44.5958 19.5641 7.95888 -1.05067e+06 -439321 -513093 447654 155709 -219990 
276 1 35.2611 46.9796 19.5885 7.11786 -644401 -502819 -278128 -345520 137954 56032.2 
283 1 39.6692 44.819 19.5649 7.68459 -482574 -434743 -513107 61324.7 -29025.9 67421.8 
287 1 42.5569 44.8381 19.663 7.88627 -1.30173e+06 -452280 -802461 123936 298579 -142805 
291 1 45.2255 44.9537 19.5261 7.91882 -842194 -169406 -141281 -222147 114132 -156322 
295 1 48.1551 45.0051 19.7622 7.95964 -37813.8 -47587.8 244935 -237935 -2393.11 6827.99 
273 1 32.5697 47.0698 19.5408 35.9703 286076 819662 1.43148e+06 -254359 -12041.9 -57026.1 
299 1 33.6827 49.5334 19.5408 10.2889 261293 711408 166850 -75865.4 -239534 -235274 
300 1 36.5513 49.5697 19.5945 6.74518 196009 -144006 -309156 163046 36041.7 -125047 
280 1 38.1232 47.2421 19.5966 7.72715 -160492 76111.7 184880 232396 156984 -200440 
301 1 39.5243 49.8132 19.6914 8.10204 421776 40412 124009 226267 -101470 10665.4 
284 1 40.9819 47.3301 19.6565 7.80083 -185137 -104595 -515955 -137910 54637 -54363.9 
302 1 42.507 49.8751 19.7203 7.75417 -383160 -592339 -5200.73 373691 59798.2 70727.3 
288 1 43.8432 47.5024 19.6359 6.71415 -334142 -832011 -372909 19342.3 32708.9 -23096.9 
292 1 46.728 47.4904 19.6767 8.02734 -291966 -4874.72 372734 140697 222431 -113413 
303 1 45.267 49.8923 19.6173 7.57732 -505796 -326985 -65397.2 -30942.5 60624.6 37323.7 
296 1 49.51 47.4796 19.6007 7.35537 -412328 -296067 328110 -33580 -148887 -9830.88 
304 1 48.2099 49.9525 19.6327 7.73113 -267804 -560585 -76644.2 178124 -116429 -165450 
229 1 44.0971 33.8383 21.6103 15.3742 360863 592934 972520 -298946 71527.8 216172 
231 1 46.8327 33.6839 21.7285 7.05146 818401 391820 502900 47018.3 30098.5 -114901 
306 1 44.7841 32.3774 23.749 41.0506 606672 41627.9 1.03547e+06 -333060 -274263 -8884.17 
233 1 49.6669 33.851 21.952 10.2537 509675 130637 822778 348658 -5103.47 95043.6 
238 1 39.7826 36.5961 21.8168 27.2301 460245 177500 767986 -345845 -34769 41255 
242 1 42.6503 36.4178 21.7957 9.40802 -67123.5 240579 -427242 -177588 91431.3 -179393 
246 1 45.4461 36.3132 21.9597 6.5957 -350885 158668 -572963 90862.4 61118 85694.2 
250 1 48.2404 36.2534 21.9719 5.90794 -455402 120500 -5492.31 203144 98927.5 -373069 
235 1 38.3341 38.9954 21.9008 10.9383 -122768 -19377.7 126696 -231936 418945 -32709.8 
237 1 41.1944 38.8765 21.8262 7.51019 -383524 -723225 -450666 -54985.3 -206681 -139487 
241 1 44.0618 38.9419 21.8597 7.58208 -352831 -177407 -177748 -152684 249338 -23359.9 
245 1 46.8865 38.8228 21.9383 6.164 -241326 43677.7 -124240 -17979.2 -46806.7 -69741.8 
249 1 49.6877 38.8189 21.9496 6.50135 -500878 -362055 -438641 99104.8 224745 -185047 
252 1 35.3227 43.7015 21.978 12.1292 114106 331548 348659 -46511.3 -164922 -134879 
256 1 36.8732 41.3701 21.901 11.9157 89309.1 -39763.9 690182 -183914 -81735.3 110122 
255 1 38.2176 43.7836 21.8287 8.02549 49959.1 -236029 -256237 76602.3 -255787 93046.1 
260 1 39.7788 41.3974 21.8913 7.8994 -54691 -175263 53901.3 24941.8 11648.4 -111159 
259 1 41.1177 43.9906 21.9015 7.57298 -420111 -133668 -509658 -95463.3 140360 -81301.9 
264 1 42.6006 41.3912 21.9533 7.30071 -220393 -39684 -264397 -113606 30551.9 -243239 
263 1 43.9727 43.9476 21.9435 7.09035 -546973 -303973 -852078 -17336.3 -252530 -167372 
268 1 45.4864 41.3584 22.0032 6.36819 -170168 -166448 -252161 -261840 -47699.9 -145835 
267 1 46.7927 43.9687 22.0052 7.54313 -96817.3 286787 -498328 -32096.9 317581 -260331 
272 1 48.3041 41.4484 21.9649 6.97241 -667492 237023 -480711 -69535.5 44861.9 -89835.8 
271 1 49.6736 44.0515 22.0113 7.46551 -151950 382763 -172765 -47249.6 -51570 -12089.1 
278 1 33.9146 46.1661 21.8927 12.0011 -126557 58008.1 402805 -298155 130221 -63397.2 
282 1 36.7309 46.2445 21.9378 7.53014 8436.62 -7618.14 -350874 70355.2 -138584 58774 
286 1 39.6648 46.3992 21.9884 7.28846 -33771 -191343 -419019 -1712.77 66128.8 27573.3 
290 1 42.5814 46.4381 21.9272 7.06481 -843425 -469255 -636491 -169454 -197376 -100745 
294 1 45.293 46.54 21.9753 7.78818 -713795 -129682 -130588 -72838.3 -1805.46 58159.9 
298 1 48.1963 46.5958 22.1101 8.29377 172504 477912 155721 91209.9 5013.65 -273050 
274 1 32.4462 48.453 21.9338 28.796 164041 487401 1.10866e+06 -3017.28 -142570 -60433.3 
277 1 35.1879 48.7032 21.9029 8.24917 -239132 -394460 -58801.4 66623.5 137523 88887.9 
281 1 38.0692 48.8456 22.0092 7.52096 11652.1 43285.5 -303040 81890.3 -33076.4 29791 
285 1 40.9912 48.8991 21.9535 7.96973 213386 75312.7 -240972 -58828.7 -68733 -260893 
289 1 43.9289 49.024 22.0666 7.20258 -500266 -425936 -302489 -93421.5 -36706.9 -44293.3 
293 1 46.7072 49.0303 22.0688 8.04577 -427692 -90584.6 26817.8 168450 -156499 -182855 
297 1 49.5915 49.1591 21.9769 6.86007 20386.5 81340.6 -117974 15616.4 -111377 -57719.1 
308 1 47.3498 32.2806 24.033 40.8265 952922 249675 910210 -81196.5 -258546 -4550.79 
315 1 43.0255 34.6405 24.0418 19.6603 445751 484538 984650 -604714 -120213 -17219.9 
319 1 45.7747 34.7283 24.1346 5.58832 -1.40581e+06 -1.93561e+06 -919574 -532311 142944 132355 
305 1 44.3841 33.6348 26.2526 18.581 498833 560840 1.14015e+06 -500627 107964 538091 
323 1 48.4827 34.7017 24.4482 7.17993 -1.24057e+06 -1.12566e+06 -456750 -136127 234372 71757.4 
307 1 47.1625 33.5961 26.5671 8.58339 654835 591441 666197 35492.1 285098 300194 
309 1 49.9534 33.6924 26.6888 6.52731 316043 718746 975180 288036 -86065.8 -41842 
310 1 38.6462 37.3354 24.1393 29.7226 476382 469780 1.37909e+06 -334065 162736 -80530.3 
314 1 39.8848 36.4443 26.6032 27.703 738045 322674 1.3766e+06 -450360 -99454.7 -102914 
312 1 41.3442 37.0521 24.1543 8.65308 -284003 447447 542804 -163447 19120.3 -111347 
318 1 42.7241 36.0908 26.4985 9.58735 592222 1.03359e+06 484243 -423457 288487 18431.2 
316 1 44.0727 37.0966 24.2342 8.2108 -1.09931e+06 -628514 -636750 35211.2 186014 -374586 
322 1 45.5441 36.1397 26.5665 6.0321 87186.9 240147 -633772 248187 163228 -94843.1 
320 1 46.9233 37.2325 24.3196 7.13974 -523573 -550472 -201139 -326899 68538.4 -133230 
324 1 49.7052 37.2387 24.3859 6.90474 -368410 -123484 -206059 -184104 262477 -150278 
326 1 48.4222 36.2681 26.7325 6.33986 121106 266435 -637466 3024.43 225913 -213331 
329 1 37.1149 39.8221 24.2364 16.0169 52856.1 -149028 320687 -554972 121227 -224920 
333 1 39.8889 39.7065 24.3357 7.1526 -903695 -555636 -561978 -164976 -184175 -157316 
311 1 38.4054 38.7836 26.6228 12.7796 -37176 399621 839001 -455985 3776.66 -4885.92 
337 1 42.6654 39.5877 24.2497 7.81082 -798758 71495 -248872 73479 118053 31793.2 
313 1 41.2274 38.7518 26.5526 7.09469 -414720 -366375 -740630 -85924.9 41674.3 226702 
341 1 45.4632 39.77 24.3633 7.14897 -370836 -97646.9 -231527 -161327 94638.4 254070 
317 1 44.1428 38.6762 26.5496 7.01181 -198281 93001 -725469 168620 35312.2 152282 
345 1 48.2987 39.7965 24.2832 6.96578 -260557 -174471 -53618.4 28458.5 79835.4 -72267.3 
321 1 46.9453 38.8274 26.6424 7.15777 -482581 41173.2 -496540 62605.4 -23965.8 -115338 
325 1 49.7746 38.7989 26.693 6.73083 -256658 -81362.2 -206236 -17242.5 72341.7 -199674 
327 1 35.4781 42.0257 24.2448 20.9204 472578 806330 866179 -238628 45878.2 15768 
328 1 35.3605 43.5611 26.6117 11.8126 817102 984766 1.44062e+06 -171290 178709 -93539.2 
332 1 36.9766 41.282 26.5686 12.5575 -144363 392554 499790 -341603 159476 -146711 
330 1 38.2848 42.1667 24.2806 7.61282 -357484 -1.18102e+06 -497344 -556261 18743.2 28374.1 
331 1 38.3237 43.8012 26.5997 7.39772 -251023 -415902 -433950 -167556 72825.1 -173591 
336 1 39.7552 41.2511 26.5889 7.06338 -313085 -651067 -1.11854e+06 108829 -71130.9 -51667.6 
334 1 41.2302 42.1875 24.2885 8.01575 -601821 -107835 3022.11 -247851 140996 -136831 
335 1 41.0736 43.886 26.5955 7.55698 -630052 -40049.8 -750094 -172000 125435 102744 
340 1 42.7032 41.2304 26.619 7.14914 -981.044 238018 -124155 -275177 70312.9 39207.1 
338 1 43.9445 42.2601 24.2979 7.18197 -647495 -141130 -395997 -21149.8 32164.5 -62653.7 
342 1 46.8492 42.2468 24.3362 7.73681 -272030 -474453 -249648 -194658 -58192.8 -6196.46 
339 1 43.9721 43.8403 26.6339 7.36568 167387 95032.1 -247948 152819 92920.3 -197203 
344 1 45.4917 41.3686 26.6974 8.30616 -746800 -3752.15 -653106 26562.6 113535 -161487 
343 1 46.8887 43.9189 26.6937 8.02406 -237887 77493.2 -224299 -107668 280447 126819 
346 1 49.736 42.3169 24.3479 7.30112 -874479 -418959 -527296 202276 138364 -149098 
348 1 48.2942 41.3539 26.6606 7.04907 -509878 -314088 -755616 -18921.5 208405 77651.4 
347 1 49.6655 43.8873 26.7105 6.91547 -305387 197820 -337334 79393.7 49747.4 37794.8 
351 1 33.962 44.51 24.217 19.3469 219058 1.12043e+06 803407 -396368 253440 -212303 
349 1 32.5568 47.0031 24.2916 24.3034 -312083 400067 827966 -185778 -56857.3 32523.7 
354 1 33.8167 46.0125 26.5603 10.9416 364107 482155 296501 -337146 -34854.7 67017.7 
355 1 36.6685 44.5819 24.235 7.19364 -155412 -1164.9 94210 -97606.1 -193254 -26888.6 
358 1 36.7207 46.192 26.6567 7.54569 51006.2 211805 -59147.4 132456 49351.4 -33135.4 
359 1 39.5993 44.6331 24.2038 7.26928 -62467.8 -349591 -268623 -360368 146725 176122 
362 1 39.5333 46.3438 26.6365 7.75945 -560328 -563405 -475421 -38522.3 145141 199807 
363 1 42.5155 44.7363 24.2911 8.08448 -388556 -674235 -234798 -103452 87061.7 14565.2 
366 1 42.4698 46.366 26.717 7.9131 -171227 -434359 -752342 -104303 139161 233755 
367 1 45.3649 44.7702 24.2451 8.46215 -329319 -42867.3 -16598.9 -76091.7 75991.4 -65724.1 
370 1 45.3555 46.399 26.8075 8.3717 199835 173605 119354 -29281.4 105637 116459 
371 1 48.2142 44.7025 24.3964 7.75333 -371415 118573 -205439 9891.43 83247.2 67356.4 