ITEM: TIMESTEP
80000
ITEM: NUMBER OF ATOMS
5538
ITEM: BOX BOUNDS pp pp pp
0.382303 99.6177
-0.0776302 100.078
3.98283 96.0172
ITEM: ATOMS id type x y z c_csym c_2[1] c_2[2] c_2[3] c_2[4] c_2[5] c_2[6] 
4 1 48.5807 33.8319 6.6759 40.1772 5423.51 47580.5 485752 -258442 197604 -45241.6 
5 1 49.907 34.2556 4.53943 28.1883 183252 416214 273164 -46205.1 529378 73720.6 
8 1 39.5652 38.0187 6.74741 12.1756 689997 494339 941023 -213615 219204 32817.7 
1 1 42.4875 36.4254 4.63581 21.4806 1.26698e+06 609977 1.36475e+06 -269846 199067 -81132.7 
11 1 41.3613 35.8755 7.05043 34.6938 12976.2 -332281 346346 -389572 100229 -220290 
12 1 42.4262 38.2452 6.86287 0.601968 -271776 -893825 71943.1 -107144 87175.6 155768 
3 1 45.3951 36.4532 4.54461 13.153 829354 179880 645881 -200673 12860.1 172894 
15 1 43.9944 35.8378 6.95969 20.3677 -24053.3 -106843 321774 -196235 307060 -222319 
2 1 46.8916 35.8852 6.95173 11.7478 464999 -190673 51130.1 -52689.5 287757 -15211.8 
19 1 48.2677 36.5152 4.55953 5.76657 403266 815090 469130 96571.9 31867 48245.1 
80 1 49.9072 36.113 6.86012 0.72125 -346633 -1.54364e+06 -483251 -49199.2 11576.1 51137.8 
7 1 35.295 38.995 4.62327 37.8421 529261 8668.49 1.28504e+06 -606448 146237 -163689 
25 1 35.2148 40.5284 6.89167 20.3722 480954 632299 707539 -652117 334622 45123.8 
6 1 36.8048 38.1159 6.84146 35.7325 725188 435297 1.50207e+06 -545266 466086 -117166 
10 1 37.9936 38.672 4.3799 12.2046 628921 631350 1.22132e+06 -184799 57039.2 331424 
29 1 38.0793 40.4185 6.82308 0.234616 -56759.8 -206224 337663 -232744 -12000 222428 
14 1 40.8704 38.7637 4.39944 5.93377 549942 579017 229670 -191101 170235 239284 
33 1 40.9938 40.5529 6.73333 0.215 -49693.3 -191203 137369 405905 340769 223357 
18 1 43.8631 38.8634 4.46173 0.2272 -53566.9 294603 -174461 93618.9 13186.7 252172 
22 1 46.6946 38.9228 4.44942 0.489961 -101954 354639 -380629 -58289.8 26874.2 103647 
16 1 45.3839 38.2605 6.83526 0.181625 -209197 -257699 -341239 -185201 342863 96301.9 
37 1 43.9571 40.8063 6.83043 0.593633 -365318 -325744 -72651.3 38322 116523 226115 
41 1 46.7768 40.759 6.91372 0.238375 -627405 -265774 -142767 21469.9 306245 247522 
21 1 49.625 39.207 4.49593 0.104391 193525 227523 -194814 245058 89828.6 221569 
78 1 48.2454 38.4308 6.76875 0.500417 -63003.8 -131747 107.884 263822 161856 176777 
20 1 49.6371 40.9778 6.89148 0.143904 51974.6 52139.8 -20150.3 -15135.1 134759 59213.4 
28 1 33.7181 41.2052 4.59542 37.3628 692433 756364 1.30471e+06 -529267 35992.3 97046.2 
24 1 32.3183 43.6085 4.66766 31.8414 -147517 996781 909302 -431042 48710.3 161670 
23 1 33.6296 42.9533 6.97323 21.2664 464443 478158 1.12149e+06 -390186 121932 202917 
32 1 36.5672 41.2044 4.51282 0.382361 -624639 -653039 72053.1 -420165 66272.1 107896 
27 1 34.9672 43.5542 4.46336 0.871668 -1.08381e+06 -788474 76678.7 -47727.2 -2293.27 50185.3 
26 1 36.5384 42.911 6.82746 0.399008 188697 -151450 107296 -170297 174996 101358 
9 1 39.3651 41.2146 4.37411 0.370783 -227632 315953 -154978 -61696.6 179349 52834.3 
31 1 37.9269 43.7814 4.62651 0.652744 -498449 -811710 -89801.2 173060 185423 255338 
30 1 39.491 42.909 6.85505 0.311137 191125 327533 278737 83138.6 -7209.07 236865 
13 1 42.3173 41.254 4.45025 0.266743 31462.6 80864.5 -337717 92832 186036 137381 
36 1 40.829 43.6812 4.50255 0.197408 81587 229977 -102292 -24886.8 -10714.6 124415 
34 1 42.4139 43.0848 6.7856 0.139334 -125145 27518.4 448911 386064 -24231 87740.1 
40 1 43.8038 43.8621 4.35606 0.659935 -209810 167971 -220814 423033 -54395.2 156843 
17 1 45.2224 41.4954 4.49011 0.143825 -117364 55476.9 -190923 -19945 345090 237529 
39 1 46.6066 44.0173 4.48872 7.42303 -154330 136173 -37060.7 -117393 106772 352113 
38 1 45.2686 43.2461 6.86303 0.1054 -420052 -252337 -219039 -109769 223814 110342 
44 1 48.0848 41.6118 4.59878 0.188153 38688.4 660071 291340 313789 -50244 231616 
67 1 48.1107 43.3812 6.95219 0.170475 -457841 -117936 -99061.7 74117.5 55560 66465.1 
50 1 31.0475 46.0977 4.87124 34.5597 -411847 620684 706456 -146065 -10989.4 300598 
54 1 33.6191 46.0197 4.55172 0.732113 -1.18714e+06 -134104 216468 -77223.2 125591 168306 
47 1 32.1725 45.2695 7.09785 23.2064 180725 706245 643879 100146 -245970 314446 
58 1 36.4717 45.9714 4.77307 0.919396 -660184 -336382 256942 286413 77734.2 -47900.8 
51 1 35.012 45.2921 7.0707 0.427865 -176995 -228519 -126931 -133140 383417 284200 
62 1 39.2965 46.1804 4.68047 0.357722 -391791 -408239 -126837 -74798 -330.766 147344 
55 1 37.9597 45.402 7.10604 0.430579 -202960 -248790 -762523 162810 -324134 150013 
35 1 42.2423 46.226 4.65551 0.414966 -14389.7 77424.9 -709495 288322 -31155.6 265884 
59 1 40.9408 45.4597 6.95647 0.213134 -13961.3 100580 -425208 225139 101583 140381 
1438 1 45.2142 46.497 4.5419 12.7749 846853 1.3008e+06 676485 72207.2 -216711 196521 
63 1 43.8678 45.6786 6.8209 0.212319 -322054 -210577 -17170.6 274368 -243290 230603 
70 1 46.7289 45.8447 6.87156 7.34571 132251 177094 440600 353392 7501.08 228663 
43 1 49.4612 44.2869 4.54544 6.45585 262850 842774 30715.8 20189.6 -3887.89 220079 
68 1 49.5725 45.9484 6.96157 7.23321 191722 -127610 256101 157153 112976 321454 
45 1 31.0063 47.7928 7.05311 47.1142 113517 652615 860257 -46077.2 56355.5 206086 
46 1 32.1223 48.5335 4.58949 11.6976 -4785.83 78488.7 684472 -327634 142171 167706 
48 1 33.6755 47.8158 6.98486 0.330585 -756292 -280965 -307984 -4981.64 365729 327852 
49 1 34.986 48.5765 4.70586 0.260771 116127 302708 115759 -386244 131478 295457 
52 1 36.5782 47.7917 7.02589 0.358409 -88838.7 229614 205898 89259.6 40822.1 122862 
53 1 37.8675 48.5535 4.63787 0.204772 9531.87 -152885 -106888 104564 181357 161694 
56 1 39.4232 47.8939 6.97986 0.107951 -91376.3 133216 -28132.8 -14661.2 -223527 41630.4 
57 1 40.8846 48.6856 4.60737 0.531596 -232116 -288392 -345269 -73658.7 -101237 118557 
60 1 42.3858 48.0499 6.9463 0.163469 -404550 -322636 -619331 59973.1 268560 235053 
66 1 43.704 48.9226 4.75783 6.39758 -560890 32542.8 -537227 110435 118140 122146 
64 1 45.2568 48.1529 6.94171 7.09636 -239966 117150 -112191 244985 -99908.4 239921 
65 1 48.171 48.4122 6.91637 12.3402 446750 420136 855558 -111387 200985 -109440 
87 1 42.8174 35.0436 9.19547 35.8285 987087 458577 776519 -200332 472973 -11284.2 
91 1 45.6993 35.1094 9.20886 20.5638 1.3437e+06 311492 554093 -323185 217429 -20857 
95 1 48.6032 35.1155 9.18599 10.5113 1.08405e+06 651727 932837 -125073 19153.1 224073 
82 1 38.3406 37.5338 9.16236 30.2048 862253 297131 1.58088e+06 -575171 451392 -122156 
84 1 41.1913 37.3556 9.25841 6.19811 536835 210915 94410.7 -186728 252080 -140533 
88 1 44.0463 37.5395 9.1701 0.348406 97649.8 -129655 -150730 -240888 -42871.6 5436.94 
92 1 47.0454 37.5496 9.21785 0.362146 429474 276240 29562.4 -202377 36798.6 -124653 
96 1 49.9912 37.7627 9.11553 0.374111 63592.1 52771.2 -270692 -81000.4 314280 -170438 
101 1 36.6823 39.7547 9.19275 22.9575 771204 801760 1.13978e+06 -320694 208217 269633 
105 1 39.6622 39.7949 9.15879 0.293472 218925 55903.2 454657 -279303 -94277.3 102461 
109 1 42.5103 39.9998 9.21959 0.275776 -154782 -57373.5 -204084 135618 119269 -235991 
113 1 45.3764 39.9558 9.15733 0.341073 78621.2 -146995 31678.6 -317274 140618 82080.3 
117 1 48.3504 40.1121 9.23216 0.101169 567007 199663 172270 11909.5 69430.5 133779 
99 1 35.1789 42.0984 9.22568 21.7655 622092 1.24702e+06 1.19874e+06 -229330 123139 182017 
102 1 38.004 42.2169 9.22219 0.329931 335188 516554 227737 9035.39 -92525.2 136738 
106 1 41.0266 42.3811 9.18869 0.179882 225152 60533.9 -136251 141564 97620.1 218540 
110 1 43.9956 42.4996 9.22015 0.278336 -387384 -130250 -292955 -61812.7 162677 97961 
114 1 46.7675 42.5049 9.24651 0.185646 -447844 -21668.8 -383145 -87402.5 192294 161516 
118 1 49.7344 42.6605 9.22544 0.110177 -16686.1 -92523.6 -579058 -217420 198938 281653 
123 1 33.6988 44.5916 9.31504 20.4372 279404 651947 310192 -348454 398914 123549 
127 1 36.5445 44.684 9.44791 0.507316 -89215.3 115180 -101077 134239 60368.8 61146 
131 1 39.4452 44.7841 9.29454 0.334126 -364836 -89478.6 -531684 258572 -110797 413615 
135 1 42.4432 44.8976 9.23424 0.131858 -82049.1 -122636 -352299 255832 -135131 186084 
139 1 45.3569 45.0249 9.19021 0.138544 -196061 7538.02 330638 154385 -7242.19 172528 
143 1 48.1779 45.0444 9.23709 0.29091 -253370 95845.7 -91672 -8787.47 270002 82060.2 
121 1 32.3557 47.0107 9.30543 25.5648 -99185.8 549424 864971 -123498 211084 290568 
147 1 33.5505 49.5184 9.41545 12.5552 567960 265896 884204 -59070.2 367246 96712.4 
124 1 35.069 47.099 9.40108 0.309066 -304564 -55260.4 -218086 134985 -224833 -116658 
148 1 36.5751 49.6514 9.40941 0.497112 271723 6542.83 18234.2 -233761 155285 182351 
128 1 38.0261 47.1498 9.42183 0.22468 -93758.5 -430749 -431043 117650 191402 -90062 
149 1 39.4545 49.6918 9.35174 0.195834 -103934 170001 72464.5 74128.5 34242.7 64195.5 
132 1 40.9388 47.2214 9.21826 0.416358 168170 -33375.9 30196.7 177503 -6385.46 120463 
150 1 42.3426 49.7936 9.35258 0.0686789 -27772.9 276871 -241082 -81065.2 281235 301445 
136 1 43.9868 47.4186 9.26635 0.348333 15422.9 -164201 -70626.7 6447.35 221954 279379 
151 1 45.2973 49.8974 9.4266 0.130411 -12634.6 -240682 115361 -5889.19 42971.9 60349 
140 1 46.8569 47.5969 9.16137 0.969302 -430099 -66660.2 264354 51430.3 -120028 34648.9 
220 1 49.7339 47.6046 14.0503 7.55151 107921 -138355 -327157 -269018 166567 270678 
144 1 49.6735 47.6386 9.39482 0.143296 -475607 -98499.6 553016 57668.4 218562 73766.8 
77 1 44.3353 34.412 11.5463 34.0277 744659 -77535.3 1.31849e+06 -140114 173698 -53244.3 
79 1 47.2383 34.613 11.5568 17.4934 782446 73296.2 557633 -232699 269170 -48530.8 
227 1 45.3091 49.9789 14.1618 7.24014 -387727 -887961 -223845 187283 21614.1 149091 
86 1 39.7605 36.85 11.5672 24.6601 867241 484456 1.36816e+06 -502151 90755.2 29757.4 
90 1 42.616 36.4772 11.6 9.99736 669374 583172 484375 55963.9 1971.79 60539.5 
94 1 45.4974 36.7957 11.513 7.03377 224993 -466098 93648.2 29022.9 12217.6 -63717.8 
98 1 48.6493 36.9106 11.4701 7.61859 -292077 -376313 105896 -346922 -156673 -177977 
83 1 38.1775 39.1136 11.5521 10.7856 795850 1.15481e+06 1.59774e+06 -233742 149032 -34640.7 
85 1 41.1324 39.1641 11.5582 7.52395 -48001.7 -274910 -232710 -489945 83044.3 119088 
89 1 43.9679 39.1944 11.6153 7.38469 -28999.8 26257.3 -126346 568197 27741.2 -54352.3 
93 1 46.9524 39.26 11.5718 8.11526 658305 226799 52299.8 93140.6 286983 26320.7 
97 1 49.986 39.39 11.5459 7.68281 -211277 -617302 -322606 -124610 82821.3 257499 
104 1 36.605 41.4986 11.5434 11.0759 546214 784907 861988 -7175.25 45077.9 20428.4 
100 1 35.2203 43.8339 11.7558 13.6494 686465 458536 1.19166e+06 24628.2 274728 339349 
108 1 39.6293 41.6614 11.4456 7.19585 -77601.8 -214301 -425503 346339 236351 -124634 
103 1 38.256 44.0014 11.6558 6.84338 -42858.7 -477147 -677932 432961 177211 476486 
112 1 42.5233 41.5604 11.4947 7.59463 -310028 -860722 -638341 127187 111929 -100970 
107 1 41.0898 44.0994 11.5371 7.90439 -610690 -442841 -251837 -56297.9 38012.8 163962 
111 1 43.9438 44.1752 11.5651 7.82117 -40616.5 -280679 -460425 503660 72960.2 176530 
116 1 45.4331 41.7316 11.5634 8.2026 -9467.97 73541.9 -552326 117508 105872 190687 
120 1 48.3844 41.8588 11.5479 7.43688 -6640.88 239074 -292832 147340 234513 217.321 
126 1 33.6345 46.0826 11.6718 11.8429 631754 480717 693547 165163 83730.8 70692.6 
130 1 36.6539 46.3866 11.6851 7.62262 340859 -747401 -473536 -2290.09 103237 -94041.6 
134 1 39.6961 46.5206 11.743 7.15198 73358.3 -412471 -155118 115274 -140131 94560.5 
138 1 42.5877 46.562 11.5495 7.65691 -49401.7 -286058 238802 -11168.4 155832 34201.6 
115 1 46.898 44.2799 11.5579 7.66371 333248 75151.6 -169226 30764.5 276270 307692 
142 1 45.4199 46.7992 11.7075 7.22215 -107725 235784 437920 42778.5 -273412 99799.3 
119 1 49.838 44.3855 11.6659 7.22036 -154890 -404416 -167547 -123218 225931 195475 
146 1 48.2753 46.8175 11.7001 7.55088 107838 308110 297193 53885.4 96263.3 116206 
122 1 32.4238 48.5333 11.7565 28.9657 367425 1.02052e+06 1.27294e+06 68159.7 127063 329743 
125 1 35.1313 48.729 11.6697 7.82807 -179598 189354 47701.9 279936 37202.2 -40564.1 
129 1 37.9716 48.7591 11.7615 7.27975 22048.1 -667465 -533078 -95202.3 -176287 277606 
133 1 41.0034 49.066 11.69 7.19526 -89210.9 -327771 -85855.3 54913.6 203776 287828 
137 1 43.8498 49.1339 11.7583 7.28556 -160760 -295320 168408 73463.9 63660.1 123382 
141 1 46.7894 49.2521 11.7698 7.57608 176815 14476.6 191154 63566.8 113335 298253 
145 1 49.7146 49.3736 11.8982 6.84003 -47185 139499 -327105 -33835.5 53870.6 213461 
163 1 43.0634 35.0692 13.8761 26.4637 970609 333329 1.09407e+06 -399819 -39595 133834 
167 1 45.8484 35.057 13.8766 11.0132 523907 413049 817916 -82225.2 345833 3534.89 
153 1 44.5212 34.4016 16.2239 16.5021 176134 -228022 956434 -475071 153513 -130873 
155 1 47.2721 34.2704 16.3011 12.625 888641 580115 727046 17643.9 29837 -180628 
171 1 48.6176 34.9627 13.9697 10.3914 31664.7 852745 338045 16943.7 -68345.6 -103221 
221 1 49.815 49.336 16.5553 7.20373 -465522 -713170 -603602 -96637.6 439948 230415 
158 1 38.4887 37.5382 13.9987 33.0623 713343 519132 1.47252e+06 -389632 82500.5 -253912 
162 1 40.0111 36.7847 16.2788 24.266 682122 377802 1.14386e+06 -507078 -2915.25 -39703.6 
160 1 41.2481 37.4745 13.8576 10.4214 594739 177513 473840 -158929 118446 -39178.2 
166 1 42.8194 36.6385 16.253 10.2287 118912 391728 607731 -343465 217742 108570 
164 1 44.1417 37.5167 13.9321 8.1011 162134 -283171 -485356 -246062 145223 -85712.6 
170 1 45.6442 36.7926 16.2897 6.97074 -783786 -1.00506e+06 -941441 -261838 -85090.6 337802 
168 1 47.0979 37.6065 13.8236 7.31274 235768 604893 66108.1 -72225.8 -147013 216032 
172 1 49.9163 37.8409 13.8063 7.45413 -129813 -141535 -294639 340749 88640.2 68217.5 
174 1 48.4843 36.8481 16.1845 6.52314 393483 506814 106982 217754 51204.1 78850.4 
177 1 36.9048 39.8997 13.9072 18.9819 792111 951975 1.19508e+06 -456383 120456 -19585.7 
181 1 39.7802 39.9029 13.9577 7.69793 -332054 -584281 -213894 52065 7361 -192241 
159 1 38.305 39.0111 16.2684 12.992 485594 479880 732893 -233134 161139 -112556 
161 1 41.2412 39.1722 16.2371 7.86183 -429772 -582644 -541653 14534 108806 -70899.5 
185 1 42.6221 39.9973 13.9164 7.78349 -577745 -200512 -888015 306662 23513.4 140884 
165 1 44.0825 39.1924 16.1161 7.60881 -282745 -364668 -556039 284867 41089.1 14032.7 
189 1 45.529 40.0541 13.8302 8.20317 89616.8 261730 -357115 -106348 105066 157386 
169 1 46.9999 39.2781 16.1676 7.08793 265718 -282325 -299960 105945 -80929.9 429469 
193 1 48.486 40.2003 13.888 8.49232 232249 -284846 191849 218467 87495.6 10225.2 
173 1 49.9458 39.411 16.2694 7.62683 223332 434325 -13242.6 84377.4 -158970 6957.55 
180 1 36.9637 41.4781 16.3183 12.5682 361818 962456 1.58007e+06 -352353 22051.7 50007.4 
175 1 35.4714 42.28 13.9962 18.9452 537316 1.02628e+06 1.01037e+06 -408110 89232.5 196432 
176 1 35.3839 43.9387 16.4256 12.1695 593628 754922 1.16111e+06 -217501 28438.4 100176 
184 1 39.7392 41.5295 16.1982 7.64506 -41187.1 -283721 -314135 497211 80584.2 -60401.9 
178 1 38.2404 42.3101 13.7774 7.85789 -171865 -487747 -233697 290042 183563 329933 
179 1 38.3359 43.9931 16.2973 7.83819 237390 187056 -100439 216088 -27135.2 267865 
183 1 41.1962 44.1593 16.3323 8.03211 -277086 170042 -67424.6 176470 -17765.1 156821 
182 1 41.1547 42.3939 13.8089 8.13857 67777.8 49355.6 300039 43735.1 163219 152877 
188 1 42.6272 41.6747 16.2971 7.86292 91474.9 -149763 -40719.3 40148.4 -79945.7 -111174 
186 1 44.0141 42.6191 13.8273 7.82632 173989 -137250 187014 198146 142702 132390 
192 1 45.5241 41.7298 16.2422 8.0501 566544 558397 743255 67757.9 84257.8 -47056.7 
190 1 46.9366 42.6277 13.7907 8.26735 428865 142626 21909.5 164510 48221.8 14767.5 
196 1 48.4115 41.8895 16.2499 7.55037 308808 -13002.7 183981 218717 236015 65246.8 
194 1 49.9394 42.6473 13.8976 6.99962 16190 -476399 -260361 65401.7 -49970.5 151222 
202 1 33.9817 46.3166 16.4042 12.1095 -206002 -179369 253390 28625.7 392181 19669.2 
199 1 33.889 44.7502 14.0886 25.3901 915645 572418 825773 -510611 39270.7 -35435.1 
203 1 36.8414 44.7114 14.0738 7.74623 172148 -55331.2 92936.3 237513 -48816.9 37641.7 
206 1 36.8101 46.4632 16.3832 7.78545 94954.1 129627 -104634 108957 206322 40261.6 
210 1 39.7253 46.6019 16.2808 7.79083 37697 -182670 -151685 57343.1 48221 18274.7 
207 1 39.6722 44.913 14.0166 7.6239 -73436.6 -24635.4 -447615 -137959 16510.9 172704 
214 1 42.617 46.6922 16.384 7.70587 52078 -90958.2 -34473.7 -25755 264052 292941 
211 1 42.5816 44.9471 13.9382 7.48573 -978.238 -154265 -24687.4 345671 86449.2 93199.3 
187 1 44.0222 44.2416 16.3187 7.4096 126409 160215 40196.8 96001.5 42131.8 61322 
191 1 47.0155 44.267 16.2715 7.62816 174156 -62978.1 271090 211661 53521.3 284144 
218 1 45.5371 46.6945 16.4121 7.08565 -105913 168111 146967 -67273.1 94528.5 157733 
215 1 45.4703 45.0685 13.9359 8.20014 67063.1 -152792 230474 -79735 78508.8 92661.8 
195 1 49.8543 44.3705 16.3478 7.50351 -44317.9 -33138.8 17053.5 -3423.16 127995 234571 
222 1 48.3346 46.8714 16.3542 7.27887 -468082 86710.2 -124346 -7121.11 127262 52914.7 
219 1 48.3693 45.1625 14.0289 8.28736 75090.8 -73298.3 -132462 -116106 182971 155574 
197 1 32.4987 47.0995 14.0103 26.3644 52320 653545 995542 65742.9 47472.1 50053.2 
223 1 33.7213 49.6752 14.1147 9.09718 62333.2 508402 317050 -91676.6 189978 245203 
198 1 32.6274 48.6483 16.3322 26.3986 -289172 563553 733331 68511.9 137769 349989 
200 1 35.174 47.1373 14.0636 7.4337 -253200 98400.4 110865 -295671 282672 284380 
201 1 35.2818 48.8783 16.4759 8.32384 -624470 49011.1 -341022 15805.8 197994 3207.88 
224 1 36.5641 49.7246 14.1705 7.9043 -2713.35 -369648 37497.1 336190 119554 243833 
204 1 38.096 47.3703 14.0368 7.36464 -26637.5 -717237 -877340 -59875.7 2015.43 404229 
205 1 38.178 49.0157 16.3853 7.24826 -260932 -192237 -353223 -48002.3 169474 -54013.3 
225 1 39.5525 49.7351 14.059 7.51376 -302875 -501301 -286119 12632.8 162771 304605 
208 1 41.095 47.4121 13.9778 8.40298 -282333 -608006 -228603 -103277 -132952 109825 
209 1 41.0461 49.1135 16.4664 7.41676 81607.4 -119996 -185914 -162521 20659.8 338134 
226 1 42.4148 49.9051 14.1737 7.71055 -523813 -924243 -138963 -55527.6 220156 40521.5 
213 1 44.0367 49.1718 16.5421 7.11145 -81245.7 -73144.9 -411354 -209749 -25616.1 21058.4 
212 1 43.9277 47.5274 14.1135 7.11115 -394288 -278816 25060.8 -43455.7 272454 227197 
217 1 46.8646 49.3158 16.4548 7.41406 -376554 -137965 -86797.3 122546 70710.3 -52365.1 
216 1 46.7986 47.5655 14.0797 7.15167 -249242 -265442 -452147 62191.8 -55816.2 148050 
239 1 43.1548 35.1041 18.6258 17.1855 848940 633879 604053 -457804 -53707.1 -220912 
230 1 45.0651 32.9568 18.4295 53.8457 917539 262716 1.18768e+06 -259579 -158927 58843.1 
243 1 45.954 35.3921 18.5586 5.68638 -129980 -1.58288e+06 -841175 -164381 -72585.3 168536 
232 1 47.6655 32.939 18.5891 35.1346 1.42433e+06 243881 481698 -116184 -16249.6 1060.64 
247 1 48.8972 35.3616 18.5686 5.87178 -187310 -727096 -217961 -307353 4800.66 -137753 
3122 1 49.8647 32.9559 23.1898 45.3381 884692 -79010.8 951120 275602 32440.1 45394.2 
234 1 38.7115 37.5562 18.6447 23.5977 11895.7 309484 1.13489e+06 -204397 -34429.5 45360.3 
236 1 41.3344 37.3502 18.6173 10.5421 5457.27 651626 32426.7 -126234 81846.5 75127.8 
240 1 44.3212 37.6558 18.5496 6.66865 -13759.8 -610781 -144591 399228 294935 -150599 
244 1 47.241 37.8761 18.4705 6.25386 -248176 -1.3401e+06 -555440 -122541 -58149.5 -126332 
422 1 47.3475 34.1958 30.2668 8.55661 -143073 187735 678940 25322.4 2939.44 286429 
253 1 37.1506 39.8903 18.6724 18.5575 372839 900210 941546 -387552 23777.8 -44227.3 
257 1 39.8935 39.9938 18.5331 7.90611 -311086 -498907 164554 35156.5 168817 -22742.1 
261 1 42.7615 40.0066 18.5479 7.5854 -61512 15641.5 -35271.2 173288 -161242 145960 
265 1 45.6555 40.1526 18.6465 8.12164 -428807 -577735 338688 186120 -26466.8 228410 
269 1 48.4754 40.3006 18.5675 7.5503 -373221 -889010 -108715 -120206 202345 52626.7 
251 1 35.6493 42.3821 18.7356 18.3303 556472 572327 797891 -653787 -40379.4 -41022.7 
254 1 38.4651 42.3536 18.6812 7.63637 -568799 -410490 32994.4 357877 83143.4 127439 
258 1 41.2509 42.505 18.6327 7.81856 -520885 -139199 251685 -113802 238708 84292.9 
262 1 44.06 42.5001 18.5831 7.36244 -159546 -298213 98168 -137740 -32024.8 -15702.1 
266 1 47.0531 42.6237 18.6024 7.78874 181251 -483608 159523 148948 158060 125377 
270 1 49.9879 42.7816 18.6904 7.54998 80916 -148758 425983 60628.5 -26827.8 184031 
275 1 34.03 44.7379 18.7503 21.7581 776720 986906 803194 -299297 -360.888 -8697.74 
279 1 36.9042 44.7539 18.7038 7.7136 -199261 -713574 -209108 21360.2 47305.2 137380 
283 1 39.7858 44.9797 18.6366 8.08703 -51328.9 -62284.9 345987 134708 193677 -12895.2 
287 1 42.632 45.0068 18.6575 7.85457 -596587 -88818.6 -167911 -89712.4 63270.4 6422.32 
291 1 45.3875 45.0371 18.7621 6.88059 38343 156256 387010 -207798 30807.2 105791 
295 1 48.3789 45.1017 18.7021 7.6668 588251 -3945.36 601623 151908 198553 -86006 
273 1 32.7992 47.2691 18.6926 30.1943 85202.1 389775 660453 -66158.8 9840.19 -50714.4 
299 1 33.8544 49.7462 18.7001 9.70436 460018 800990 533123 -87501.4 166127 48140.2 
276 1 35.523 47.1813 18.8252 7.50149 -904724 81542.2 -519726 101636 26129.3 302619 
300 1 36.8068 49.7806 18.7638 7.63366 -409121 -156449 -136673 201299 -108254 196371 
280 1 38.2984 47.3815 18.7773 8.01049 -977144 -525372 66705.3 52115.5 -23459.7 -5419.41 
301 1 39.5483 49.8808 18.9504 8.13963 -1.15944e+06 -1.11369e+06 -314258 -119685 130788 273413 
284 1 41.1021 47.5184 18.7344 7.38812 -236951 -474148 -46794.8 -120066 76994.6 116324 
302 1 42.4563 49.9784 18.8416 7.3532 -301557 -792916 -201596 26145.3 193273 141190 
288 1 44.0245 47.545 18.8458 7.82464 34392.6 -375306 -48550.3 -112868 -24100 273260 
292 1 46.9157 47.4749 18.8206 7.09077 -88165.3 246592 100241 79627.7 -75450 -7430.94 
410 1 44.0975 47.4484 28.2202 7.17949 -461070 -188311 -79979.4 19584.1 162986 245948 
296 1 49.7834 47.6831 18.8315 7.76998 170084 -74511.4 142535 220260 207159 275328 
315 1 43.1658 35.184 23.2722 15.9973 226373 172845 1.00423e+06 -303213 25421.3 -62673.4 
229 1 44.5387 34.2541 20.9098 13.6354 309232 196742 1.10782e+06 -348545 -110491 214449 
306 1 44.619 32.8781 23.1642 42.5412 486822 113164 729998 -139820 -48885 138145 
319 1 45.892 35.184 23.3347 6.98033 -824443 -1.33898e+06 -336578 -192040 -5491.96 77148.2 
231 1 47.3056 34.2601 20.9169 8.13605 1.0212e+06 345505 809879 2575.06 71941.4 -65813.1 
303 1 45.388 49.9871 18.8275 6.98391 -30697.2 -180310 -380369 -389737 -109879 130838 
308 1 47.2351 32.8106 23.1929 38.1736 859353 134773 593980 150378 3853.83 67921.6 
414 1 49.9024 47.5931 28.2016 8.12402 -33070.8 -43387.2 428445 327897 170200 42560 
323 1 48.7495 35.2703 23.2087 7.2229 -166418 -984540 217398 429098 -136355 110952 
238 1 40.1167 36.8617 20.9541 22.6639 117136 -224689 578685 -568358 197644 81015.3 
310 1 38.8331 37.5911 23.3121 32.047 286050 53373.3 1.17085e+06 -391828 45235 98373.3 
242 1 42.9131 36.5661 20.8379 10.0451 193264 320033 118315 -164233 -21019.9 -72084.1 
312 1 41.5378 37.4488 23.3233 9.00552 -38629.6 140442 729984 67602.3 -80124.2 144620 
246 1 45.7452 36.7368 20.9947 6.79221 122897 87649 -298769 -31903.9 7976.16 -283725 
316 1 44.3308 37.6504 23.2467 7.08363 -270406 -565072 -72257.8 6741.53 185652 -71319.7 
250 1 48.6092 36.7886 20.8944 6.3256 67910.4 288251 -314166 -70440.6 174919 -78977.5 
320 1 47.2346 37.6866 23.2611 7.34015 -57782.5 -342879 165794 -87012.1 24908 14522.5 
406 1 38.4149 47.44 28.1423 7.77493 -227236 -101145 -80452.8 -58329.6 162986 193825 
329 1 37.3046 39.9937 23.3316 16.5431 66993.9 399450 586912 -396536 77766.2 61440.3 
235 1 38.4168 39.0218 21.026 13.22 450589 453240 633252 97225.7 5497.06 -34786.9 
333 1 40.0345 39.9371 23.3193 7.43937 -1.12525e+06 -760708 -233068 -250995 175162 -15185.4 
237 1 41.3783 39.131 21.0014 8.0447 -325408 -660449 61903 -437385 136877 -132255 
337 1 42.8112 40.1015 23.3109 6.5954 -803245 -940610 -987100 297888 -21169 73609.2 
241 1 44.1373 39.259 20.9457 7.04595 -230410 74607.3 -321434 525324 66028.4 55915.4 
245 1 47.1081 39.321 20.8903 7.13668 213987 216138 -243761 -38798.4 30288 15818.8 
341 1 45.7253 40.1499 23.2508 8.11679 -62507.1 -151425 396869 41758.9 3534.64 68221.3 
416 1 36.8563 49.8738 28.3377 7.7037 -210609 -663442 -108286 -247220 166416 81720.8 
345 1 48.5776 40.1869 23.3646 7.49 -668180 -625346 -160416 149828 108453 23872.3 
256 1 37.1115 41.5268 21.0262 12.4091 -16931 491063 426082 -251974 49665.8 110503 
252 1 35.5415 43.9315 20.992 12.5565 314178 520809 569264 -272914 229638 -29443.1 
255 1 38.3969 44.1235 21.0512 7.64314 221525 117858 108331 177282 4943 87754.5 
260 1 39.9032 41.5867 21.0364 7.82622 15388.4 295041 -197064 235237 -43636.6 124934 
330 1 38.489 42.4247 23.3535 7.89163 -518239 -557168 97612.1 70072.2 -94432.7 -17977.8 
259 1 41.297 44.1379 21.0755 7.93237 -36640 46588.2 265145 -180204 48252.1 49463.9 
264 1 42.8098 41.6301 21.0304 7.38211 -73992 -781065 -169057 74329.3 169070 257528 
334 1 41.375 42.4686 23.3731 7.78491 -484397 -603259 -431952 200506 -175996 110756 
263 1 44.1076 44.1548 21.0896 7.64792 -371663 -536037 -83260 214476 246464 159541 
268 1 45.6828 41.8965 21.0324 7.03134 -226935 -17374.4 244259 154020 177526 98805.2 
338 1 44.2381 42.5579 23.4388 7.51211 -175525 -523947 -363870 -8587.39 81171.3 -13323.9 
342 1 47.198 42.594 23.4935 7.29452 -397292 -512164 -58818.1 91344.5 -123983 -76559.2 
272 1 48.4956 41.8398 20.9923 7.63886 -258465 -170168 94691.2 26873.6 55666.1 -46237.2 
346 1 49.9881 42.7121 23.419 7.66112 -482035 -687902 -513144 227046 89534.4 394662 
278 1 34.0447 46.3678 21.0373 11.747 -110633 227716 272395 -20468.7 128606 234736 
351 1 34.3578 44.9449 23.4006 21.1291 -198924 352744 877054 -474514 -117809 192510 
282 1 36.8667 46.5016 21.1054 7.7124 -219758 -41822.2 -429068 173533 -239308 175266 
286 1 39.7618 46.6324 21.1372 8.03955 -213083 -96859.7 -13544.3 -71333.2 11970.1 126858 
359 1 39.8788 44.9933 23.4768 7.78786 -44849.7 58040.6 156600 68423.7 74230.8 113683 
290 1 42.6176 46.6109 21.1166 7.49152 -169688 -104221 -78058.3 -28504.4 34541.4 178786 
363 1 42.7329 45.0148 23.4351 7.38233 -414739 -546185 -567268 -133246 -86780.2 80624.7 
267 1 47.0456 44.3372 21.1251 7.58633 -107879 -185051 234903 -151471 49659.5 -100129 
294 1 45.4688 46.7084 21.1541 7.33027 -138829 -27048.8 -310119 205691 17563.9 141464 
367 1 45.6236 45.0887 23.4628 7.47836 -474817 -309945 -404113 -23693.8 201128 162466 
271 1 49.9085 44.3078 21.206 8.14835 -50205.9 -70616.9 -52207.4 59979.5 123683 117472 
298 1 48.3911 46.8377 21.1167 7.56058 104437 163277 -208588 -85175.6 -45302.3 145696 
371 1 48.4521 45.1224 23.4665 7.69751 -625982 -697522 -536748 -93754.6 93152.9 -165521 
274 1 32.6968 48.6788 21.0863 23.1131 -48833.1 581067 1.03351e+06 69012.4 9912.16 65956.9 
375 1 33.8809 49.7609 23.4693 9.37316 -266024 -717670 -42574.8 -51233.1 -1493.61 -21307.7 
277 1 35.35 49.0414 21.1415 7.44592 -470710 250326 -34949 80586.4 95178.4 81817.1 
281 1 38.2113 49.0278 21.1396 7.66299 -117335 -61395.4 -601935 -58910.1 338445 256796 
356 1 38.3256 47.3935 23.4858 7.72581 -527383 -507341 -469080 37996.3 -12626.4 137390 
285 1 41.1539 49.1014 21.1415 7.67435 289561 42114.5 -148635 -102649 24002 323613 
364 1 44.029 47.4667 23.4996 7.48271 -522781 -436395 -214434 45431.5 257768 114256 
289 1 44.0793 49.2189 21.1992 7.23502 56080.8 153956 -37084 55528.7 82013.1 -24765.1 
293 1 46.9187 49.3125 21.1352 7.73173 16323.3 84038.7 206064 14850.2 122733 105307 
297 1 49.8705 49.3508 21.289 7.43245 -239352 -102608 -193269 71588.1 336623 173502 
372 1 49.804 47.6195 23.5032 7.57814 -376233 -456923 -327927 69800.1 120359 61722.4 
305 1 44.5822 34.1519 25.6454 13.926 605408 834629 1.1913e+06 -248620 175478 254294 
307 1 47.3484 34.128 25.6149 7.67321 1.33808e+06 778962 737781 139332 -273205 177003 
249 1 49.963 39.41 20.9752 7.38559 -153217 -69968.8 69838.8 59304.9 -50056 -46736.6 
314 1 40.1782 36.9527 25.8003 23.3418 171416 -406791 815567 -586978 -126907 -121484 
318 1 43.0064 36.5977 25.6783 9.07431 561527 588746 693122 -412313 -20845.8 -104152 
322 1 45.8413 36.8012 25.6456 7.50669 192172 480824 -72548.4 7403.93 64977.1 5566.54 
326 1 48.6602 36.7869 25.687 6.84755 375049 443499 55399.1 -43884.1 94731.7 234751 
311 1 38.5416 39.0997 25.7311 12.1779 266275 221925 1.0033e+06 -201905 -68609.1 16314.4 
313 1 41.4722 39.1735 25.77 8.21052 -883564 -1.10069e+06 -72857.5 -599527 73786 170269 
317 1 44.1863 39.1788 25.6187 7.04921 -335849 191375 171697 185597 -158141 -69.5345 
321 1 47.1235 39.3589 25.6898 7.05824 -59843 -65076.6 10772 68037.4 168275 87638.5 
378 1 42.6599 49.9056 23.6369 7.26852 81797.6 -223213 518052 -44238.7 121271 -53065.1 
327 1 35.7609 42.3866 23.3403 17.6432 205632 684095 936926 -444382 18560 -44620.3 
332 1 36.9783 41.5039 25.7647 12.2672 453585 753104 665435 30654.1 127908 -131689 
328 1 35.6181 43.9421 25.7196 11.8665 59018.6 576188 578397 -310147 196707 125817 
336 1 39.8847 41.5455 25.7264 7.56906 97773.5 80768.9 48660.7 46942.6 -45589.2 45797.7 
331 1 38.4292 44.1505 25.7946 7.40162 137300 626786 -215853 182726 -74110.9 70653.4 
335 1 41.3489 44.0941 25.7983 8.02243 -12590.2 59430.6 -131838 51748.9 14459.3 93798.8 
340 1 42.7002 41.6816 25.6765 7.42676 -416574 -643928 -433394 80384.6 -15282.3 -79376.9 
339 1 44.1608 44.22 25.711 8.21353 -176569 42461 -203228 -86229.4 127936 44508.5 
344 1 45.6493 41.7199 25.7971 8.27904 332033 -89701.1 -49862 278666 29916.7 300619 
348 1 48.6194 41.8061 25.7507 7.76406 -96922.1 -47577.6 -102736 -12308.3 -140677 209945 
354 1 34.0196 46.4109 25.8888 12.5182 209003 448325 739565 -181500 171309 37170.5 
355 1 37.0075 44.8164 23.4515 7.74227 -1.0978e+06 -569323 -446997 52328.7 156036 52074.6 
358 1 36.8476 46.5561 25.753 7.20536 -37508 -156410 -291567 311246 99875.2 79520.6 
362 1 39.7566 46.7197 25.7921 7.12942 -161611 207118 -98616 25620.5 147723 -111863 
366 1 42.6038 46.725 25.753 7.13218 -68985.1 260661 -385071 32323.3 122256 132659 
343 1 47.0788 44.2582 25.8085 7.68578 -120781 -163466 -238857 -101178 -65745.2 -103158 
370 1 45.5318 46.6949 25.8403 7.90856 19305.9 -162278 174797 90276.7 87702.9 -33809.7 