ITEM: TIMESTEP
70000
ITEM: NUMBER OF ATOMS
5538
ITEM: BOX BOUNDS pp pp pp
0.382303 99.6177
-0.0776302 100.078
4.02848 95.9715
ITEM: ATOMS id type x y z c_csym c_2[1] c_2[2] c_2[3] c_2[4] c_2[5] c_2[6] 
4 1 49.0366 33.3116 8.06544 45.2171 719439 183769 1.15095e+06 -256261 77023.6 -75302.7 
1 1 42.8002 36.3563 5.58573 18.7738 1.40284e+06 405386 1.67421e+06 -329899 23023.4 -512926 
3 1 45.6387 36.1116 5.3879 6.26762 1.19927e+06 906089 1.3318e+06 -180602 64410.1 50388.2 
19 1 48.4524 36.3305 5.36068 5.93521 154940 197145 740843 52282 46615.5 43025.2 
7 1 35.9311 39.0423 5.65192 36.1109 236045 -25333.1 630887 -525463 235610 -101956 
10 1 38.5823 38.699 5.49427 12.1466 306440 768382 1.0058e+06 -86011.5 47513.7 87759.8 
14 1 41.3678 38.7841 5.41648 6.3123 264798 414044 435900 -65162.8 45887 32588.5 
18 1 44.2493 38.7029 5.34987 0.384429 103573 899620 494603 -203908 223546 192781 
22 1 47.0117 38.7593 5.37704 0.263698 -430281 488201 23019.2 158228 -12423.2 -247758 
21 1 49.7824 38.9075 5.37183 0.44677 -219076 -299579 71288.4 191678 -5898.73 -69688.6 
28 1 34.4034 41.3694 5.68886 33.77 430653 693873 847457 -571067 278.978 102883 
24 1 33.0484 43.8724 5.75918 31.8489 -195427 289503 672669 -338555 67646.6 -97958.4 
32 1 37.1788 41.313 5.46347 0.402191 -658670 -1.02442e+06 -295598 -442341 -85348.1 -342904 
27 1 35.6924 43.7037 5.48378 0.58436 -849159 -621493 -123976 68516 -11246.5 -118533 
9 1 40.0028 41.3472 5.43723 0.109566 -423859 44543.3 9487.65 105530 -156802 -185163 
31 1 38.5788 43.8182 5.46693 0.140473 24240.3 117378 315749 -19789.2 52770.5 -129850 
13 1 42.7868 41.2985 5.33854 0.146883 -93181.8 213562 177417 -26625.3 5652.62 -142629 
36 1 41.3939 43.7831 5.32979 0.157188 -232314 160963 477842 -53758.4 166362 -53310.8 
40 1 44.1852 43.8508 5.34658 0.235036 -546808 204926 211451 114960 116890 52989 
17 1 45.6514 41.3545 5.26895 0.111483 214902 458308 410472 19370.9 4710.9 -39953 
39 1 46.937 43.9251 5.29165 6.81697 -401102 -17025 -39376.1 14477.1 83206.5 115278 
44 1 48.4816 41.4195 5.27617 0.243852 -453496 90389.8 18585.8 110655 -33947.6 -221776 
43 1 49.74 43.9936 5.16285 7.25842 -2496.83 271140 220055 -155897 -16221.4 -119477 
50 1 31.8021 46.2425 5.63074 35.6006 -723212 639795 984870 1831.61 88010.7 262335 
54 1 34.3199 46.2457 5.48141 0.339456 -1.4211e+06 -338680 111110 -268590 -275178 -98177.6 
58 1 37.152 46.3996 5.42804 0.399353 23537.1 95397.2 -72400.5 -89233.2 224031 -364985 
62 1 39.9982 46.3564 5.35688 0.192938 165958 -34119 377273 -122074 50292.4 -110450 
35 1 42.8691 46.3843 5.13018 0.538962 198548 88904.4 326488 3778.34 -48242 -125886 
1438 1 45.6594 46.3641 5.14436 13.2912 896895 691537 1.13086e+06 72796.8 -31314.7 -141861 
70 1 47.0457 45.5645 7.57604 6.77103 -278930 34825.6 313604 140597 51745 -176913 
68 1 49.7444 45.5644 7.45788 7.32819 -85040.3 291558 58142.6 -139852 110748 57618.6 
46 1 32.7804 48.8383 5.41449 12.8351 -84791 -12915.1 301218 -341538 165007 -88864.9 
49 1 35.5965 48.8508 5.27767 0.213272 60367.1 -184971 -382870 -52681.3 87988.1 -58705.7 
53 1 38.5313 48.8503 5.29275 0.383598 -384651 -399497 -270779 -171020 102190 -44194 
57 1 41.2947 48.8305 5.17647 0.126873 -200505 -375182 31020.1 -181771 102849 -141222 
66 1 44.2313 48.8599 5.09058 6.9858 660305 390146 621417 -138628 148193 -106450 
64 1 45.6143 48.0149 7.4739 7.31552 -415120 -261694 158945 49874.3 83726.1 131090 
65 1 48.3358 48.1092 7.30594 20.5238 663579 1.1575e+06 1.34494e+06 24641.3 -17757.6 96076.8 
87 1 43.0816 34.782 10.3637 32.921 823288 31465.8 1.29397e+06 -408514 199117 -371717 
91 1 45.816 34.6676 10.223 13.0952 821644 160673 1.44821e+06 -203588 -13725.1 -255187 
95 1 48.6241 34.7189 10.2812 11.6779 402360 -335520 651825 57445 95919.1 -363514 
6 1 37.3603 38.15 7.87769 33.0768 342686 95200.4 1.03946e+06 -441658 510382 -167034 
8 1 40.0665 37.9192 7.81431 11.9977 567444 788407 883708 -283682 -164271 48924.4 
82 1 38.758 37.4211 10.2879 31.8534 272773 -11570.9 1.57011e+06 -642164 416354 -238127 
11 1 41.7845 35.6891 8.06185 33.4815 663324 -163018 616612 -337226 288511 -314002 
12 1 42.9128 38.0292 7.72112 0.529715 -447849 -682407 -373799 -602358 3280.01 -59524.1 
84 1 41.4682 37.1675 10.216 5.75595 -93819.1 -414651 -80683.6 107937 31206.7 -515782 
15 1 44.4532 35.4158 7.76963 20.7632 553093 497976 1.20243e+06 -256092 217822 -334536 
16 1 45.765 37.8822 7.81075 0.374272 -435848 139651 157566 -86048.8 216304 241502 
88 1 44.3301 37.0823 10.095 0.446802 -160020 -178385 331104 -268363 214179 181725 
2 1 47.1935 35.4613 7.72893 6.38709 815675 670032 1.18579e+06 -245853 37470.8 -157424 
78 1 48.5452 38.0583 7.72767 0.151587 -400049 -72393.5 4608.83 200281 100354 98254.3 
92 1 47.1915 37.0617 10.1504 0.295647 -320030 -221632 112630 -6543.08 -10095.7 175274 
217 1 47.0883 48.973 16.9711 8.16273 269239 287241 263820 -183347 -58518.9 -68648 
25 1 35.7358 40.4386 7.90871 21.7212 326960 637797 653052 -96030.2 25657.5 18417 
101 1 37.2725 39.7869 10.191 19.671 93041 324118 574709 -555365 408548 231887 
29 1 38.5678 40.4965 7.92526 0.509347 -381229 -624441 -51811.5 -282709 211717 183995 
105 1 40.1352 39.6034 10.2505 0.412956 -1.04174e+06 -1.40105e+06 -142866 -83993.5 -250835 54821.7 
33 1 41.4198 40.5002 7.72735 0.246976 -116162 -98093.3 235138 390239 -28876.9 124875 
109 1 42.9215 39.6797 10.1249 0.0993721 -672209 -177093 178506 11624.6 232139 1233.91 
37 1 44.3201 40.4641 7.71848 0.0979965 -257551 100494 350834 -277392 6527.94 35150.2 
113 1 45.7332 39.6458 10.0891 0.0888192 -130342 35363.5 211592 -29509 27208.3 59588.9 
41 1 47.0769 40.4836 7.68478 0.107678 -687514 -336215 438584 20068.5 103692 -14130.2 
20 1 49.8636 40.651 7.70424 0.299151 -520064 -621400 -162778 284511 -144268 -131864 
117 1 48.6048 39.5713 10.1655 0.596164 -472856 -144453 -183704 -128166 207764 29506.3 
23 1 34.4739 42.9454 8.02245 19.6188 -37796.5 268446 187697 -139667 36412.2 -24447.3 
26 1 37.2245 42.912 7.83707 0.222659 18549.6 223197 329280 285617 104736 -56906.9 
99 1 35.8369 42.2345 10.2667 20.4993 309335 390369 686708 -127763 -20812.2 242577 
30 1 40.1167 42.9123 7.79919 0.263817 -306560 -218404 211853 91492.1 18973.2 -241258 
102 1 38.7129 42.0819 10.3037 0.384335 -222119 -502002 14547.2 -165789 -188150 -215691 
34 1 42.8615 43.0087 7.76772 0.153333 -264776 238202 421921 -37874.2 -22572.4 70030.8 
106 1 41.5404 42.095 10.285 0.502744 -723000 -660952 -147625 121924 -23406.1 33591.1 
38 1 45.7377 42.9738 7.64827 0.23801 -769576 -3142.18 -46668.1 -77219.9 126466 132303 
110 1 44.3626 42.1364 10.0596 0.183594 -708130 -250330 146498 -108833 -39735.2 77571.3 
67 1 48.4342 43.003 7.64274 0.184197 -860245 -733047 -126091 158035 -47120.2 -132538 
114 1 47.1172 42.1593 10.1045 0.128642 -954059 -71519.2 -124288 -125117 3726.13 73098.5 
118 1 49.8846 42.1501 10.0501 0.4065 -861433 -256125 -58760.1 239856 15030.3 -120054 
47 1 32.9258 45.3546 7.985 22.6541 348159 1.01523e+06 425965 -151463 -64030.9 -28100.7 
123 1 34.3583 44.5605 10.1771 21.4249 469444 574091 368783 -227739 88358.6 -49122.1 
51 1 35.7186 45.4928 7.86628 0.172685 269704 -195997 165414 -213636 -5714.5 79792.7 
127 1 37.2233 44.64 10.2046 0.103101 221849 -45227.6 328722 -125217 -64206.9 34665.4 
55 1 38.6562 45.5102 7.8003 0.218278 171103 107519 8516.66 16373.2 37199.4 -197782 
131 1 40.1059 44.5713 10.1164 0.268036 -644360 -222389 157494 -162464 -120630 141638 
59 1 41.4702 45.5289 7.69106 0.168037 -400310 113169 114698 42147.5 -138541 -189204 
135 1 42.8303 44.6666 10.1311 0.248872 -715021 -356615 -183948 283582 108888 9361.74 
63 1 44.2125 45.5498 7.681 0.157484 -63659.7 352134 860457 -185478 -64434.5 -157667 
139 1 45.7035 44.6495 10.0591 0.182569 -16396.1 13272.9 119158 -28595.4 7201.08 -93583.6 
143 1 48.5348 44.6637 9.90964 0.367987 -571907 141114 211241 -126702 49286.9 -40189.8 
45 1 31.6763 47.9711 7.80053 46.9712 -196899 1.07219e+06 1.0737e+06 -146101 175450 239285 
48 1 34.2405 48.024 7.76623 0.278288 -1.12502e+06 -250500 14386.7 259130 128080 -205130 
121 1 32.8477 47.1134 10.1809 29.1782 637277 885947 1.26829e+06 -257439 124209 80456.8 
147 1 34.1378 49.5436 10.1035 6.38534 564743 363742 738958 237162 9943.61 -243668 
52 1 37.0653 47.9071 7.64018 0.313991 -271285 -589861 -416749 -142474 47760.3 -495146 
124 1 35.6859 47.1108 10.1939 0.280481 284267 -172516 -170292 13782.8 -60998.3 -284501 
148 1 37.0163 49.5866 9.89944 0.287017 120279 -373803 -180497 -241419 -16263 -63506.9 
56 1 39.943 48.0568 7.60329 0.207182 -268104 -445592 -194528 -191733 51437.5 -70206.9 
128 1 38.5565 47.1104 10.0356 0.148413 174615 -248390 66489.5 -207087 -27878.6 -266047 
149 1 39.8721 49.5949 10.0223 0.348482 -138559 -62387.6 112242 -430406 33858.1 -274807 
60 1 42.7678 48.0922 7.5511 0.243053 -260792 -396928 458778 -173616 -67641.9 -60100.3 
132 1 41.4612 47.0251 9.99967 0.901529 55089.3 -456022 190233 31323.6 -114504 -89040.7 
150 1 42.6615 49.6222 9.93888 0.264008 4005.28 111643 254966 91191.5 31843.9 -108197 
136 1 44.3149 47.3019 9.96505 0.653944 -852757 -109019 -238699 42015.2 -62615.8 -181126 
140 1 46.987 47.2565 9.83314 0.14786 -1.03174e+06 254615 201670 37561.1 -80020.5 -254513 
151 1 45.5945 49.7968 9.79772 0.27699 -517957 -348321 -91154.5 -163870 -61146.3 154025 
144 1 49.7243 47.3438 9.76072 0.372271 -534136 67865.6 656720 -23106.3 219930 -70785 
152 1 48.3585 49.8772 9.75128 0.321142 -982797 -447941 277526 31645.2 7130.2 134145 
77 1 44.5563 33.9911 12.6411 33.1283 461540 106028 1.06033e+06 -148302 170418 -67695.6 
79 1 47.3052 34.0081 12.6395 21.2192 949192 177795 699169 -111125 207674 -92356.6 
86 1 40.2101 36.5866 12.6953 22.4565 207032 233152 941116 -745441 2257.2 -67851.3 
90 1 42.9416 36.2461 12.6371 9.41174 -66220.4 -76020.8 -195994 -15316.2 31519.4 -74153.2 
94 1 45.8385 36.363 12.5569 7.5549 -322810 -647109 10187.1 -2530.48 -36926.2 -42506.8 
98 1 48.751 36.376 12.5352 7.44925 -181684 -430444 -291755 -207763 -8226.41 -99891.3 
83 1 38.5882 38.9175 12.6346 10.4017 507745 708801 1.21312e+06 -391308 22172.8 -143224 
85 1 41.5486 38.8249 12.4995 7.97966 -232111 -886110 -432346 -213182 -152532 17798.1 
89 1 44.4053 38.742 12.5092 7.25503 74128.1 36825.2 274812 183648 20530.9 64052.5 
93 1 47.302 38.8573 12.4744 7.06578 -356121 -101809 -156440 -151974 369822 71224.6 
220 1 49.9604 47.3656 14.5507 8.14194 95562.7 -99115.5 282756 95695.1 -34927.2 16657.3 
104 1 37.1555 41.333 12.6534 11.8366 280156 581719 434674 -86017.3 108248 -234739 
100 1 35.7413 43.7842 12.6065 12.8462 413874 591970 483877 -374641 -257152 -145116 
108 1 40.1157 41.2658 12.5874 7.92487 -102242 -250793 -739073 85046.4 43181.6 -105588 
103 1 38.6367 43.8279 12.5507 7.71516 208702 232115 -303947 39264.5 -108937 -142722 
112 1 42.9828 41.3208 12.5415 7.74845 -630682 -53273 -342917 -139558 -304625 161314 
107 1 41.5202 43.8485 12.4883 7.55827 -383647 -47986.3 -694116 -274098 -101485 -234599 
116 1 45.7584 41.3423 12.4778 7.69029 -572508 166832 -29760.9 60679.9 115171 92447.8 
111 1 44.3472 43.8633 12.4743 8.32564 -705753 -275267 -231382 -233324 -52490.2 33377.1 
115 1 47.1537 43.8748 12.3904 7.82251 -347321 -121488 64345.8 10517.3 -1157.2 -95553.2 
120 1 48.5891 41.4038 12.4381 7.9057 -132835 98735.3 -96837.5 -72893.9 -72697.7 50168.2 
197 1 32.9326 47.2475 14.7752 23.6063 97105.9 582929 1.31993e+06 -240806 173241 -122994 
126 1 34.1457 46.2461 12.4912 13.1003 514397 739524 660673 -335442 20574.5 33038.9 
130 1 37.1 46.3179 12.5378 8.28913 98572.2 -126696 -186177 62245.1 -138821 -76516.8 
134 1 39.9319 46.422 12.4729 6.97288 -189922 294417 209251 -185389 -162829 -28806.7 
138 1 42.7977 46.3818 12.403 7.79223 -435050 -198893 -340227 -70158.5 -74000.4 -84113.3 
142 1 45.608 46.3586 12.2807 6.84933 -412244 -492510 -218698 -55579.6 -60886.5 36518.9 
146 1 48.4688 46.3946 12.3173 7.00798 83687.9 130658 544699 26718.9 21883.9 -78821.4 
122 1 32.7826 48.6543 12.4399 23.1456 575871 934981 1.27182e+06 52749.3 72014.8 107519 
125 1 35.5721 48.7642 12.4061 7.67574 -386710 -462345 -433751 181670 -308127 -150102 
129 1 38.3687 48.8433 12.3576 6.92788 -457974 -391614 -176510 83279.2 307833 -22086.3 
133 1 41.3168 48.8779 12.4005 7.81058 33460.9 -183024 62290.3 -113393 -45815.4 165621 
137 1 44.2095 48.8889 12.2441 7.69802 -352157 -173834 -133220 -83913.4 -170227 -244896 
141 1 46.9829 48.8615 12.1745 7.14951 -218281 -43388.8 382984 -137018 24119.7 -23954.9 
145 1 49.8412 48.9771 12.1535 7.27391 -419084 -89793.5 129149 102407 -53686.7 24490.4 
163 1 43.2484 34.7711 14.8587 23.9815 788402 76605.4 837045 -192878 70392.2 200535 
222 1 48.651 46.5031 17.0545 7.73741 53086.7 195177 25997.3 80946.8 -40181 -178573 
167 1 46.015 34.6943 15.0003 11.6407 372584 -69491.9 453547 -311278 406495 -101253 
194 1 49.9976 42.2689 14.7411 7.77824 -109591 411518 331552 -71503.4 26705.3 -128368 
171 1 48.812 34.7236 14.8668 10.6127 584423 477948 826994 -57247.5 -2996.21 -115281 
158 1 38.9224 37.2424 15.0309 26.2068 85844.5 334374 1.26152e+06 -501838 67602.5 -77241.8 
227 1 45.5528 49.7772 14.5618 7.60758 -1845.27 41925 114358 -76558.9 -2535.26 -105206 
160 1 41.6 37.1287 14.952 9.53194 -685426 -504.31 -48214.7 47433.4 -77126.7 -268051 
212 1 44.2745 47.2507 14.7012 7.55839 47477.2 -101304 149998 -61586.5 -38809 -313757 
164 1 44.3699 37.2548 14.9482 7.18903 -653923 -360771 -41158.9 -278054 -133254 -89778.6 
200 1 35.6126 47.1926 14.7953 7.02236 -523391 -324201 -190681 -238862 41913.4 -102884 
168 1 47.1965 37.1652 14.8583 7.61583 48752.6 -5523.56 -37611.7 -89219.1 -6917.87 32240.1 
223 1 34.0943 49.6825 14.8356 9.07346 236721 -39654.3 118780 -76957 185983 76499.3 
177 1 37.416 39.7746 15.0837 22.6507 197585 410960 778132 -539957 145071 -177217 
181 1 40.1481 39.5607 14.986 7.40863 -686067 -556370 200202 -75527.7 -100100 -19953.5 
216 1 47.1129 47.2942 14.6406 7.7024 -5546.06 156600 477831 26182.1 81717.9 -113124 
205 1 38.3345 48.8194 17.0546 7.12589 94261.3 68625.2 -760739 64060.1 -47103.9 -216579 
185 1 42.9965 39.7184 14.8758 7.40419 -150561 -485565 -152477 134948 27622 -34704.4 
213 1 44.214 48.8451 16.9586 7.1146 134439 343531 -221368 2938.15 -151229 -99619.4 
189 1 45.8769 39.66 14.8277 8.00197 -512474 -344635 -157557 38711.3 -538.567 -88837.6 
204 1 38.487 47.2258 14.8263 7.4194 -255116 -329136 -454770 154082 -9730.28 -260943 
193 1 48.6478 39.7904 14.8842 7.80463 133803 382765 565409 -102987 25338.6 64798.5 
221 1 49.9922 49.143 16.9558 7.44548 -73978.4 -59925.9 95288.9 -211802 -28929.6 -6761.31 
175 1 35.9489 42.1741 14.8758 16.1792 40846.5 287514 199384 -491799 180004 -85971.3 
208 1 41.3785 47.1959 14.7234 7.76048 -68015.3 -181295 -271865 -12757 -67696.5 -172557 
228 1 48.4827 49.842 14.5573 7.48937 177966 233485 48038.8 41638.9 83175 -140709 
178 1 38.702 42.1098 14.8743 7.44274 -1.00211e+06 -599884 -318009 -197038 24338 -74514.7 
225 1 39.878 49.7206 14.7215 7.99668 -51257.4 22410.1 363408 124811 122878 -144058 
182 1 41.484 42.1723 14.9142 7.75971 -437734 -143783 -362974 69947.5 -182957 -181205 
224 1 37.0402 49.5962 14.6838 7.25385 -358377 -770845 -540911 120368 -116675 -273540 
209 1 41.3773 48.7609 17.0796 7.34341 509334 206455 7559.34 -255946 81798 -34954.3 
186 1 44.3979 42.1781 14.8423 7.64979 -446746 -49552.1 -617059 -133801 -140153 -114152 
219 1 48.5581 44.8474 14.7811 7.39123 -378382 -33692.1 -29174.7 51652.7 -52309.6 -31393.6 
183 1 41.4052 43.7888 17.1657 7.31509 -31798.9 -257694 -167884 -47310.3 -76059.5 -71090.1 
190 1 47.1964 42.2809 14.8706 7.69726 -538096 49162.7 -122663 -62211.9 221983 1490.94 
198 1 32.904 48.7157 17.129 24.0474 -426573 911289 985194 -302711 41247 -23322 
218 1 45.7504 46.4225 17.1532 8.06957 466602 477922 153818 136566 99355.1 -9892.72 
199 1 34.2995 44.7554 14.8414 17.7316 775011 1.06847e+06 932614 -529422 82237.6 -77188.9 
226 1 42.7563 49.7315 14.6988 7.46673 -260374 -63835.4 -117563 -196866 -141777 -98147.4 
206 1 37.0828 46.1731 17.0968 7.22254 178127 -188576 -460498 28242.5 -93779.5 170727 
203 1 37.1078 44.58 14.8417 8.09292 -118914 -377907 -513587 -268877 -128387 -359921 
207 1 40.0224 44.6759 14.8317 7.86595 -112316 34842.7 -13245.5 -132663 -197009 -125578 
215 1 45.7379 44.7725 14.6995 7.66481 36354 208904 345727 -16936.5 -147000 -154902 
211 1 42.8348 44.7358 14.7455 7.42314 -127108 -11949.5 -328905 -123897 -66399.2 -321316 
214 1 42.8144 46.2434 17.0947 7.04248 251026 46059.7 -27359.7 -25877.6 54894.9 -140809 
192 1 45.8189 41.3653 17.114 7.79755 -228661 -517193 -435231 147185 129010 166283 
239 1 43.6485 34.674 19.6517 16.8702 633156 598315 782121 -490512 78530.7 -134624 
230 1 45.5107 32.5995 19.5704 50.1208 682415 -267138 1.27602e+06 -346927 7836.39 -206745 
243 1 46.4315 34.9399 19.6805 6.01292 -685614 -1.96436e+06 -565571 -458123 154460 -238387 
232 1 48.1204 32.4796 19.6024 39.799 892805 186514 482992 -25337.9 -117818 -18642.7 
247 1 49.2511 34.9563 19.6512 6.10357 -927647 -953281 -528418 -54293.3 -33406.1 -38408.2 
234 1 39.0519 37.218 19.7234 32.2587 289677 355124 519541 -143090 2212.2 -113384 
236 1 41.7488 37.0546 19.7341 9.61374 287123 538324 561116 -386134 231707 30913 
240 1 44.5973 37.2374 19.7514 7.6733 -77951.7 -656137 22318.3 36121 79986.6 -175958 
244 1 47.4862 37.4405 19.5417 6.66934 -45987.1 -1.12957e+06 85299.4 -316091 68938.9 89948.8 
253 1 37.4811 39.6411 19.7657 16.2386 471166 748956 809012 -639497 104577 -252212 
257 1 40.2628 39.7039 19.6365 6.97771 -619282 -353021 -574895 50134.2 57801 -177847 
261 1 43.04 39.5835 19.532 7.74947 -716351 149275 -349038 40233.1 -17438.9 -86153 
265 1 45.8991 39.7584 19.6023 7.76632 -406964 -664566 -422390 221956 -107246 -281397 
269 1 48.7961 39.8873 19.6678 8.17715 -227886 -515283 -380550 -133958 67992.9 13847.8 
251 1 35.86 42.205 19.5766 17.4641 688355 1.06155e+06 820439 -489024 121962 -223017 
254 1 38.6419 42.0423 19.6321 8.08984 2355.79 -364355 -108242 -107507 41000 -64378.1 
258 1 41.5924 42.2471 19.5675 6.71819 210683 -164026 -54143.8 -126017 -138540 -86453.1 
262 1 44.456 42.1761 19.4924 7.66596 -470521 -105818 -285149 140446 -78670.3 176361 
266 1 47.2413 42.3775 19.5578 7.82526 -346601 -373828 -568327 110089 12440.8 160056 
275 1 34.4046 44.7158 19.5557 16.4786 119032 385162 226727 -374265 -26196.4 136520 
279 1 37.1364 44.6761 19.4091 7.61628 -512310 -183758 -565536 -114164 225792 -161342 
283 1 39.9739 44.6397 19.5711 7.91819 6458.92 232515 -160946 30083.7 -72540.9 11.1605 
287 1 42.907 44.7158 19.4898 7.8597 -21590.7 -44374.2 132848 -128596 -70679.3 -5881.4 
291 1 45.7271 44.7624 19.442 7.70101 -339864 -375920 -708344 193302 48651.5 97053.4 
295 1 48.6794 44.8671 19.4094 7.55675 329559 -17866.2 -114656 -66920.4 -72802.1 -64330 
273 1 32.8989 47.132 19.4627 26.5568 141855 838707 1.57055e+06 -133569 40651.1 -20684.4 
299 1 33.9515 49.6449 19.5454 10.1742 414800 214659 423773 1418.21 -4299.46 -100437 
276 1 35.5816 47.1846 19.581 7.38104 -394870 -783931 -228754 -569651 -45780.1 144646 
300 1 36.9469 49.55 19.3825 7.6053 96532.3 -311130 -178107 -126074 -171150 -277056 
280 1 38.5031 47.1789 19.3997 7.52393 206919 -134420 6100.52 72843 156074 -144653 
301 1 39.8355 49.7565 19.2723 8.20572 368390 73748.4 71371.5 -114409 -130887 -2297.28 
284 1 41.4321 47.1863 19.4092 7.3285 366561 526371 -258503 129330 -278067 -24273.5 
302 1 42.7866 49.8776 19.3072 6.50452 217210 294858 154591 40764.1 -138191 -13592.6 
288 1 44.3296 47.2545 19.3627 7.54614 78238.6 15213.6 -150409 -16551.3 113730 -99665 
303 1 45.5888 49.7774 19.3068 7.7943 -114586 292808 -114242 -111754 -122128 -132597 
292 1 47.2212 47.3438 19.4037 7.30748 -29012 -162362 -228951 -18149.3 21845.1 -198086 
229 1 44.9157 33.7804 21.996 15.3511 799444 838862 1.32984e+06 -373960 -141470 34014 
231 1 47.7442 33.8157 21.9282 7.89148 1.1588e+06 692677 927492 9212.96 91896.6 -85315.8 
238 1 40.3597 36.4451 22.0003 26.4343 386391 160576 556136 -237819 -4760.46 76686.8 
242 1 43.2103 36.1599 22.0265 9.32616 697420 673491 141081 -376482 148750 -52732 
246 1 46.1176 36.4249 22.0256 7.13566 323703 438437 -614082 242345 -4322.61 36453.8 
250 1 48.9657 36.4302 22.0071 6.47793 309084 469230 -190638 -36490.6 200977 -218930 
235 1 38.7761 38.6471 21.9863 13.0563 401041 422595 484625 -245821 -27951.1 -265805 
237 1 41.7129 38.8201 22.0053 7.88204 -322522 -254803 -317055 -142584 -45045.4 34665 
241 1 44.4875 38.8181 21.9764 7.4675 -120155 198700 -488071 199537 202588 -248355 
341 1 46.0798 39.8 24.2639 7.06129 5644.68 22775.2 -113494 -120388 227187 -29838.5 
245 1 47.4181 39.0566 21.9237 7.21148 -170172 324461 -422841 87818.8 238369 19011.2 
256 1 37.1536 41.2325 21.9536 11.953 629577 1.04708e+06 611649 -383564 297010 -386098 
252 1 35.6896 43.7184 21.8231 12.7176 521669 663855 739567 -383432 -146000 -152294 
260 1 40.1042 41.1505 21.9621 7.29471 354158 -57051.5 -367653 223626 -45852.4 -371920 
255 1 38.6218 43.7399 21.8968 7.89762 -861.048 72002.5 -251955 70499.9 178774 -116247 
264 1 42.9703 41.3873 21.8922 7.40494 -182068 99415.8 -303864 28989.7 30538.2 -72985.8 
259 1 41.3996 43.7893 21.8914 7.28402 -9374.31 224535 -416121 250029 -149179 -191729 
338 1 44.3975 42.2701 24.1494 7.96586 -707557 72293.6 -258056 -167223 52056.5 -30825.7 
268 1 45.8663 41.4031 21.8344 7.22381 -131855 -109996 -697996 184175 -77879.7 -199141 
272 1 48.7543 41.6734 21.7783 7.58842 -55799 -172849 -405786 -277630 -185708 -355790 
278 1 34.225 46.2212 21.8672 11.7806 309380 519654 320497 -401767 258226 -260231 
282 1 37.1212 46.1585 21.7924 7.16025 158222 281542 -124566 70108.1 -120552 -147237 
286 1 39.9245 46.3204 21.8584 7.91356 -258925 261600 -269009 -9681.99 89621.7 -306202 
290 1 42.7875 46.4723 21.7547 7.23545 81476.1 441972 -246559 49724.4 -70542.9 -102928 
363 1 42.8606 44.6949 24.1073 8.04366 -73934.3 -179267 -159849 -34560.8 17220.5 -124780 
263 1 44.4223 43.9296 21.7978 7.90398 146166 384372 -20426.7 -170124 105411 161535 
294 1 45.7327 46.5117 21.7373 7.67316 -255150 -472748 -359320 92668.5 33690.6 -62956.1 
267 1 47.2002 44.1139 21.7864 7.06001 -737606 -542639 -611219 79499.4 -29087.1 -189949 
298 1 48.5998 46.5012 21.7792 7.4325 -82471.5 -360803 -93660.4 -240262 -84927.2 -56264 
274 1 32.8595 48.6912 21.9002 26.9987 -140598 878345 771244 -158916 -33922.9 331927 
277 1 35.5116 48.7807 21.8949 7.88647 -321337 129448 -448469 17215.2 -82210.5 -162966 
376 1 37.1083 49.7347 24.018 6.98564 114459 -254535 -440193 -114179 17577.4 -427978 
281 1 38.4174 48.8473 21.7068 7.31993 160654 345313 -116608 257222 -103124 -237562 
285 1 41.3216 48.9251 21.652 8.01498 159446 316612 204807 187526 57306.8 -244863 
360 1 41.4235 47.1593 24.082 7.95112 -407450 -233474 -304224 -45703.7 17591.6 -344391 
289 1 44.1974 48.9601 21.6831 7.36987 -494756 -27681.4 -345054 75083.1 196898 -111006 
364 1 44.2723 47.2464 24.0413 7.50477 -243948 189234 5483.43 267016 -35775.5 -25305.6 
304 1 48.495 49.8218 19.2637 7.51917 185071 142642 146328 -311164 56986.2 -219468 
293 1 46.9989 49.0361 21.6195 7.10193 -238797 -118657 -525567 69044.3 -9907.99 -163403 
368 1 47.1438 47.4033 24.0411 7.85018 -47299.7 99705.6 -432802 -329047 7463.69 -110663 
315 1 43.5319 34.7287 24.3932 17.4591 647277 248448 930096 -265235 -78680.9 122599 
306 1 45.06 32.533 24.3873 66.1868 468409 -132487 476004 -83305.6 51225.3 -97105.6 
319 1 46.3607 34.8293 24.252 6.70369 -650534 -1.3458e+06 -544061 -213029 97185 -6322.23 
305 1 45.0219 33.9092 26.6474 14.6093 449107 300645 927837 -477813 151637 -150887 
308 1 47.688 32.4083 24.3809 39.4853 1.18238e+06 141225 741625 2805.01 -20269.6 -151588 
323 1 49.1639 34.7912 24.3107 8.1449 -758906 -1.20229e+06 -338608 573918 -139544 122065 
307 1 47.8093 33.7978 26.6708 7.75197 1.02579e+06 908427 1.23527e+06 -59008.1 -38076.1 -278013 
310 1 39.1214 37.0934 24.3938 25.4356 330358 226262 862469 -364295 31236.2 -158386 
314 1 40.4668 36.4539 26.6641 25.3795 540983 189250 1.13569e+06 -252235 -200544 106996 
312 1 41.8473 37.0755 24.2546 9.70502 -44981 44456.5 86096.1 -12175.6 83875.5 -158448 
318 1 43.2989 36.2803 26.7243 9.89243 681443 639046 372430 -184903 121231 -34082 
316 1 44.68 37.2166 24.3072 7.9514 -26118.5 -238532 -235282 88659.9 -10938.3 -42162.9 
322 1 46.2054 36.3657 26.5585 7.13099 464777 188764 -224970 -201776 -7059.29 -19249.9 
320 1 47.6734 37.3364 24.3336 7.21042 -105893 -393043 -187942 -199186 22311.4 20120.2 
326 1 49.0768 36.5028 26.5947 7.17942 26276.6 507070 -750427 148184 -4008.47 70533.1 
329 1 37.5357 39.5191 24.3034 16.8576 423540 1.40377e+06 1.14732e+06 -495870 109022 -166316 
333 1 40.2432 39.5167 24.3609 8.08467 -668415 -353407 -580720 -184685 -810.901 -38643.8 
311 1 38.8314 38.6013 26.6537 12.7641 364426 394516 338828 -272890 264692 -189132 
337 1 43.1526 39.6847 24.2768 7.69794 -209747 -243946 -734494 82855.2 93711.9 -91391.9 
313 1 41.8066 38.7911 26.5584 8.2248 -97502.7 -21617.8 -405293 -112705 13180.2 81629.9 
317 1 44.6337 38.9146 26.5762 7.94689 -286266 217698 -424761 -116356 -2023.19 -107649 
345 1 48.9045 39.8326 24.2955 7.10137 -90441.3 -13149.1 57030.7 -455820 145042 -316534 
321 1 47.4988 39.0677 26.6827 7.15493 -232789 -243807 -696442 -241817 -61118.7 97607.8 
327 1 35.9716 42.1033 24.1839 16.8638 250482 801014 720304 -648250 212175 -220265 
332 1 37.1465 41.1307 26.5693 13.7062 777358 1.15441e+06 805975 -322255 84558 -59890.4 
328 1 35.7137 43.6634 26.5202 12.7873 506202 824385 557099 -285678 210315 90934 
330 1 38.6971 42.0768 24.239 7.72347 -172503 -93706.7 -104201 69568.2 -25355.3 -179613 
336 1 40.0791 41.1667 26.6098 7.02177 763382 56981 -637987 394137 59684.8 -226805 
331 1 38.6229 43.6849 26.525 7.07964 462355 259705 -500122 297242 179704 -73927.7 
334 1 41.6151 42.1066 24.1881 7.82666 -507315 -206763 -645605 43242.8 -42167.3 -242885 
340 1 43.0888 41.4461 26.5283 7.59407 -204342 143798 -284149 115287 106344 -84052.6 
335 1 41.5031 43.7881 26.4033 7.79832 78782.4 91719 -347563 203013 -54725.6 -32721.9 
344 1 45.8598 41.4413 26.5749 7.20756 -15456.1 157338 45581.1 126630 76768.1 -106782 
342 1 47.1856 42.3759 24.1181 7.46271 104961 76258.6 429824 -249613 3566.7 -148106 
348 1 48.8339 41.4374 26.5654 7.43303 356841 -173138 -92481 -184614 374433 -231690 
354 1 34.2252 46.1983 26.4898 12.4656 54799.3 526791 44479.9 -354674 -112450 -28641.3 
351 1 34.4527 44.6528 24.2098 17.6039 129923 1.02117e+06 810182 -445340 21754.7 -28132 
355 1 37.1258 44.5229 24.182 8.2808 -731033 -345263 -193448 -150947 103138 -33360.8 
358 1 37.0762 46.2126 26.5108 7.16085 135113 -33469.8 -341278 125831 63106.3 19693.2 
359 1 40.0134 44.6327 24.2219 8.0424 -477537 -256755 -700537 -44701.8 -108438 -10807.4 
362 1 39.9838 46.3262 26.4832 7.45712 112157 -13464.9 -253639 244725 40839.2 -163612 
366 1 42.9112 46.3273 26.4416 7.51593 231474 49774.5 -292883 335686 67157.1 -73373.1 
367 1 45.8477 44.846 24.1519 8.26561 301121 -170539 -196918 207546 116312 -61103.5 
339 1 44.4379 43.9961 26.4744 7.54128 54585.5 65939.3 -247243 146538 134598 -222172 
370 1 45.8261 46.607 26.3985 7.32545 -23870.7 242254 -145830 -54127.9 52612.9 -116632 
371 1 48.7903 44.8281 24.0628 7.48201 -150951 143217 -359693 87677.8 145063 -40586.8 
343 1 47.3636 44.0709 26.4405 7.27085 509626 918206 181159 -75781.1 -21917.5 -12430.5 
374 1 48.6836 46.6506 26.3316 7.66082 -170304 -24250 -243935 -217349 145599 51590.3 
349 1 33.1131 47.2812 24.1603 30.3487 -697323 -148559 629917 -287863 -6027.08 158307 
350 1 32.901 48.7141 26.6074 26.9008 -69448.3 1.10226e+06 864189 -218100 -196535 -204639 
375 1 34.1035 49.6675 24.2043 9.6231 137337 -626912 -298317 -292272 -43075.7 -223617 
352 1 35.6979 47.1436 24.1428 7.09696 -1.10982e+06 -119426 -446748 -19558 -57782.7 37973.5 
353 1 35.582 48.7138 26.4648 7.55578 -371749 -119938 -539534 118342 -157876 -129046 
356 1 38.5419 47.0931 24.0843 7.81024 -268155 189083 -253158 58242.4 134398 -306140 
357 1 38.4826 48.6746 26.4444 6.9638 63510.5 -443112 -276441 172699 53558.3 -74944.1 
377 1 39.8979 49.6261 23.9769 7.99274 76785.4 659307 179857 3515.28 -12009.6 -256870 
361 1 41.4302 48.8367 26.3551 8.21286 261587 -17074.7 -115137 -165054 147151 -171012 
365 1 44.3252 49.0361 26.3707 7.46596 209193 488259 -34092.7 264073 43431.6 -16712.8 
369 1 47.2465 49.088 26.3157 7.62731 160011 -81775.2 247734 -111267 49006 -144763 
378 1 42.8083 49.6453 23.9854 6.87712 -169855 43284.3 -459296 -50780.8 207337 -224778 
385 1 43.8303 34.7619 29.005 20.191 287816 244469 446683 -421483 -78202.7 105843 
381 1 45.6221 32.6494 29.1606 50.1818 764018 -468199 1.12791e+06 -317871 127345 -36873.7 
387 1 46.5683 34.9678 29.0311 6.15596 -964499 -1.74634e+06 2431.91 -731604 -22873.5 158623 
382 1 48.2716 32.4708 29.1828 38.5598 949829 166609 780998 -179428 252949 -201171 
389 1 49.3491 34.8927 28.8847 6.77298 -878303 -1.14775e+06 -305881 260585 102500 20778.9 
383 1 39.1345 37.1821 29.066 25.3729 749606 733997 1.24656e+06 -247229 -74268.6 96832.2 
384 1 41.9089 37.119 28.9846 8.98083 351175 249560 -9770.88 -200093 -9661.56 -87469.5 
386 1 44.7735 37.2981 28.999 7.30633 -19187.3 -1.01258e+06 -120562 -82287.3 -134949 -154417 
388 1 47.7687 37.3694 28.8994 6.95248 -183909 -1.26453e+06 -277369 -379054 -106981 186145 
392 1 37.63 39.6587 28.8569 15.5656 311636 829096 823238 -549621 133006 -53340.8 
394 1 40.3882 39.6407 28.9237 6.51653 -583725 -431277 -496039 -36816.1 -105553 227251 
396 1 43.2516 39.6583 28.9226 7.57028 -946991 -201883 -285076 179699 35795.1 -40670.4 
398 1 46.0147 39.8081 28.9531 8.16018 -738413 -410836 -738106 -138552 202424 -49887.5 
400 1 48.9285 39.8345 28.9303 7.38348 55583.4 -355976 -545498 -226327 -118992 -35251.7 
391 1 36.0781 42.1779 28.8272 16.5412 286398 736969 382430 -340849 77270.7 -181645 
393 1 38.8219 42.0921 28.844 6.92867 -653396 -563370 -577553 62395.3 268368 -56194.7 
395 1 41.6662 42.1149 28.8407 7.63801 -255953 100306 198780 -170482 29996.6 -64117.9 
397 1 44.53 42.2473 28.9367 8.03726 -169249 -442466 -444647 81228.5 84513.3 -149786 
399 1 47.4803 42.3514 28.7997 7.87686 116232 219011 64428.3 145336 54643.3 -315283 
403 1 34.5258 44.6433 28.7743 17.166 409397 429152 460278 -360297 15011 112479 
405 1 37.3597 44.6526 28.827 6.63427 -298935 -547315 -464986 76357.1 160736 -13476.5 
407 1 40.1778 44.6619 28.8156 7.67481 -143005 165493 209632 -109852 -12584.1 28056.9 