ITEM: TIMESTEP
40000
ITEM: NUMBER OF ATOMS
5538
ITEM: BOX BOUNDS pp pp pp
0.382303 99.6177
-0.0776302 100.078
4.16543 95.8346
ITEM: ATOMS id type x y z c_csym c_2[1] c_2[2] c_2[3] c_2[4] c_2[5] c_2[6] 
6 1 36.7954 38.0545 7.13777 34.6347 611403 532042 840757 -198666 294594 -58740.2 
8 1 39.623 37.8682 7.19962 12.7092 930202 603375 246733 -278206 -52965.8 94820.4 
1 1 42.7514 36.1791 4.9097 20.145 555665 595885 762130 -255346 -16354.9 -348.451 
12 1 42.6043 37.9232 7.24838 0.223761 -307490 -454800 -569183 -138653 -81329.5 -1331.25 
3 1 45.5237 36.1101 4.97618 12.9299 488957 456634 121686 -150219 -56540.5 304258 
19 1 48.5159 35.8769 5.05838 5.85417 890484 1.21742e+06 131213 -72236.5 204477 114341 
7 1 35.5403 38.9052 4.98174 40.0908 255079 362140 675840 -213500 -61276 -120194 
25 1 35.3221 40.4617 7.16255 22.4786 452388 465091 370985 -209171 52962.1 -66171.4 
10 1 38.2034 38.6274 4.84709 12.5825 16831.6 352284 399523 -4495.41 -18121.2 257896 
29 1 38.228 40.4267 7.18712 0.134381 -73750.9 49690.4 -501225 38684.1 -273880 252847 
14 1 41.0517 38.5521 5.02302 5.54014 417503 960407 -27826.2 -42605.3 31055.3 299875 
18 1 44.0768 38.6565 5.02009 0.201898 -89553.2 -6885.68 -1.17746e+06 19447.8 82270.9 72307.8 
22 1 47.0056 38.5765 4.98743 0.141307 242860 739982 -698852 -131384 -150367 29844.9 
220 1 49.5345 47.2299 14.1113 7.79802 -268054 441993 -377536 -74247.7 14548.9 48221.5 
24 1 32.6762 43.7344 4.78029 31.3233 249257 679527 314961 -622284 186834 12371.5 
28 1 34.1321 41.3134 4.91038 30.2947 402448 765970 427509 -431891 -70571.4 -20249.2 
32 1 36.9365 41.203 4.84167 0.333993 -573233 -235268 -219531 -166827 -105189 130636 
27 1 35.4376 43.7224 4.80454 0.266619 -423589 -292386 -306354 -97784.5 -222337 -60888.5 
26 1 36.7158 42.9365 7.17028 0.0850379 36999.2 -451804 -664025 226257 -174929 13809.5 
9 1 39.7493 41.1321 4.85156 0.242082 -197865 472161 -337260 142894 -123969 -129710 
31 1 38.3157 43.7472 4.91468 0.142892 -26893.1 150925 -102644 -275824 1047.98 125560 
30 1 39.6631 42.9183 7.21718 0.0665147 49358.6 -382701 -213465 -98514.2 -224394 60531.4 
13 1 42.6103 41.129 4.97568 0.20686 63113.4 646457 -78027.3 260263 -113786 169235 
36 1 41.2065 43.7173 4.89822 0.146008 25970.2 550927 -108725 1339.29 45216.3 23936.2 
34 1 42.6101 42.899 7.28762 0.199693 241903 368054 -122486 96327.5 -69445.4 191465 
17 1 45.4962 41.2551 4.99159 0.228567 200215 306389 -557052 -155288 77694.1 103405 
40 1 44.0366 43.7853 4.99065 0.138804 -202657 358665 -257529 -65514.1 141020 47422.1 
44 1 48.4544 41.1424 4.99136 0.341589 480305 869656 -291409 1474.25 45323.1 -32981.1 
43 1 49.845 43.9381 5.0833 6.92278 180708 273459 -614487 -145951 186359 -9700.19 
39 1 46.8691 43.7742 4.95217 7.29028 332726 244182 -511589 -169160 41862.5 3291.81 
67 1 48.3943 42.8638 7.22948 0.51707 -250978 249558 -97297.5 -141915 175889 174775 
50 1 31.2072 46.1008 4.59605 42.9135 217696 1.33624e+06 1.2519e+06 -252537 274916 410711 
54 1 33.8631 46.1836 4.77572 0.215963 -884874 -430703 -952494 -254688 -103309 133188 
47 1 32.5138 45.2658 7.06117 21.0576 30884.6 678289 565458 -257581 495675 -154191 
58 1 36.7454 46.2816 4.88733 0.250502 -57294.7 128013 -116114 -162897 17948.7 65932.3 
51 1 35.2735 45.3702 7.13701 0.078646 -522192 -463240 -673008 317644 -176117 135837 
62 1 39.6257 46.2344 4.9529 0.24326 -50739.4 97209.3 -141162 -124977 13604 256.915 
55 1 38.185 45.398 7.30355 0.345815 -567668 -360401 -749173 -2108.12 20123.4 106146 
35 1 42.4907 46.3511 4.91317 0.378826 -39794.1 143220 -666560 11881.5 -421033 100580 
59 1 41.02 45.3403 7.25315 0.385929 -219925 167051 -358278 -64125.6 -91146.2 107772 
1438 1 45.3824 46.2402 4.93799 21.0002 477939 542337 -100341 -137943 -211650 179731 
63 1 43.9282 45.515 7.20972 0.142244 211815 230264 -667805 133764 -96038 -8815.66 
68 1 49.6467 45.5128 7.31997 6.92752 -244546 227483 -1.00335e+06 -74414.4 20907.1 5227.82 
70 1 46.8466 45.5246 7.14702 6.67354 310569 557214 -148363 49978.9 -217855 25452.8 
46 1 32.3647 48.6577 4.63512 12.8231 447911 932825 441926 239537 51640.3 100248 
45 1 31.1732 47.8414 6.98668 42.0911 504228 1.5406e+06 1.35153e+06 6149.96 -5955.31 516033 
48 1 33.8446 47.857 7.08417 0.214803 -705922 -12057.8 -228275 151010 20325.5 17296.9 
49 1 35.3066 48.7996 4.77211 0.218977 183301 -189211 -369786 123803 81641.9 40433.3 
52 1 36.6373 47.9024 7.18623 0.0872061 -353248 -205006 -387583 -57762.3 -268442 -146549 
53 1 38.1817 48.758 4.77966 0.324287 -325972 170494 -2040.37 -166976 14881.2 140655 
56 1 39.5293 47.9311 7.21277 0.135591 365430 243087 78253.8 -28567 -128973 -69359.2 
57 1 40.954 48.8604 4.79336 0.64504 11924.6 42887.9 -112689 97168.8 -223399 -193809 
60 1 42.4803 48.02 7.16932 0.238276 365742 10692.7 -513929 76726.9 -209094 96263.1 
66 1 43.9395 48.7956 4.86207 7.03549 465292 503346 -41526.1 -83564.9 133736 8312.73 
64 1 45.4797 48.0646 7.15366 6.74575 187574 191532 2759.67 67613.5 -62288.3 -26253.9 
65 1 48.235 48.0767 7.14662 19.7027 895313 1.44791e+06 888000 -32556.2 -27706.3 26131.9 
87 1 42.6295 34.9024 9.36973 31.0029 468275 -51605.5 762759 -545179 549101 -278381 
91 1 45.4806 34.6381 9.62779 22.0727 1.36212e+06 213824 1.0708e+06 -140044 88494 -209276 
4 1 48.6121 33.237 7.19634 45.7453 782590 558284 1.20298e+06 -371406 -27463.5 -40373.3 
95 1 48.3968 34.5808 9.69393 12.7559 1.50399e+06 550182 1.46684e+06 -131706 -44679.1 -162559 
82 1 38.0303 37.2509 9.53024 36.8012 944991 271196 1.37475e+06 18359.3 195072 -166899 
11 1 41.2985 35.591 7.09504 38.5717 783620 652643 1.10051e+06 -358640 73666.3 -76358 
84 1 40.9697 37.1263 9.53368 6.26288 968300 337451 287741 20015 -147257 193912 
15 1 44.0998 35.5404 7.24505 20.021 176011 -419967 -226395 -266860 416450 -146730 
88 1 44.0777 37.0898 9.59025 0.37089 -405704 -774312 -926176 -348252 54215.4 -269514 
92 1 46.9044 37.0569 9.7122 0.262013 -253068 -85953.6 -516489 -93328.9 -41974.8 52637.9 
16 1 45.5529 37.8579 7.30706 0.136311 -492362 -809201 -638749 -138651 114306 149327 
2 1 46.963 35.4707 7.25317 12.5 519081 95870.5 502079 -152092 43592 -86180.1 
96 1 49.9088 37.0503 9.6643 0.186418 -233935 73457 -1.13162e+06 -29178.1 -15218.2 -107511 
78 1 48.4681 37.8287 7.34374 0.19687 -263232 -209704 -13968.5 69075.4 -59693.3 131758 
101 1 36.7653 39.5716 9.527 20.1674 -122752 389987 807592 -149657 68305.2 215941 
105 1 39.4953 39.5994 9.51923 0.237212 -367752 -178498 -799350 118557 -205069 -57758.2 
33 1 41.0782 40.3867 7.25564 0.148841 -8520.62 259029 -306744 181224 -43839.2 41365.9 
109 1 42.5657 39.6129 9.52598 0.129283 342005 42629.3 -484586 31391.9 -167693 -65196 
37 1 44.0795 40.3754 7.19236 0.271606 -249151 -302557 -1.0059e+06 -25219.7 44876 -92799.7 
113 1 45.516 39.6134 9.58398 0.203092 -421879 -315745 -721758 -36248.3 223417 -65765.9 
41 1 46.9274 40.3495 7.28901 0.0760597 -424614 37250.2 -343631 -184826 75626.9 181093 
20 1 49.7724 40.3632 7.38201 0.199535 -144257 2350.02 -360758 -3683.37 -7950.43 190786 
117 1 48.3219 39.542 9.65013 0.0884619 -585590 -38910.3 -828879 -127193 114978 41651.6 
23 1 33.8314 42.8495 7.13898 22.8042 414911 434211 692539 34630.7 51722.6 1803.94 
99 1 35.2168 42.056 9.45425 23.082 316752 745769 687023 -301089 115190 -5233.56 
102 1 38.0172 42.1088 9.51424 0.292405 -151092 -383536 -577685 189105 -212556 87985.3 
106 1 41.0052 42.087 9.56281 0.0654474 133859 101589 -661315 129242 2367.43 -9485.77 
38 1 45.5214 42.9431 7.31436 0.356386 45996.1 288397 -642490 18358.9 -87217.8 -59427.6 
110 1 43.9398 42.0567 9.55912 0.155841 -43995.4 18764.5 -760825 -13109.8 -187403 217238 
114 1 46.8781 42.155 9.57032 0.196982 -44543.8 -134114 -673448 -91681.1 -187042 20063.3 
118 1 49.7773 42.0927 9.6456 0.3526 -8816.13 338272 -185915 -9681.87 19121.7 84584.5 
123 1 33.822 44.509 9.47046 20.7098 60202.7 576436 567381 -323547 90703.2 38138 
127 1 36.5796 44.5695 9.46204 0.185745 -604555 -364262 -920320 127577 -66431.7 21696.8 
131 1 39.5171 44.5842 9.54229 0.0876696 -295560 -121667 -1.43909e+06 55025.5 -122639 112682 
128 1 37.9442 47.1367 9.50334 0.256701 192681 -280.719 -586143 172859 -208148 61779.3 
135 1 42.4492 44.6945 9.56167 0.231565 -35049.7 266732 -619951 168504 -280877 90655.8 
139 1 45.3115 44.6885 9.48461 0.0993808 -219766 209992 -619875 72843.6 -257895 -99710.8 
143 1 48.1474 44.7002 9.53339 0.171655 -480770 174267 -385793 -87854.9 113967 283576 
121 1 32.282 46.9187 9.23568 29.2829 336576 1.04832e+06 775543 -23747.8 171821 -31287.2 
147 1 33.5813 49.646 9.37308 11.395 742379 1.13942e+06 249911 242420 263344 184067 
124 1 35.034 47.0492 9.48516 0.509595 -64636.6 133593 -624168 -141816 -105340 142676 
148 1 36.574 49.6177 9.45029 0.120343 89322.3 107721 -857171 62708.6 136094 90496.8 
149 1 39.413 49.7032 9.49192 0.0810254 -120149 256038 -417970 38335.1 -156499 170315 
132 1 40.982 47.1589 9.5043 0.171866 90261.7 365841 -366788 112510 23638.3 90155.4 
150 1 42.3595 49.8208 9.5498 0.400246 -134977 -77457.6 -587994 121380 -126289 227733 
136 1 43.789 47.304 9.39352 0.573159 -50874.3 113911 -403563 -6140.39 -321771 35554.6 
151 1 45.2534 49.7438 9.44367 0.157801 -165648 356882 -728862 -166521 -25137.3 182662 
140 1 46.7675 47.1938 9.44254 0.173498 142701 132759 -427000 130946 -198264 240684 
144 1 49.6552 47.3046 9.50949 0.234006 -8068.67 31902.9 5232.97 117702 -15927.3 -1977.56 
152 1 48.1577 49.8172 9.44938 0.198627 -212030 152845 -109690 204292 29832.6 316512 
77 1 43.9664 34.0947 11.7988 35.428 739106 2917.31 1.38518e+06 -267485 194205 -58870.8 
79 1 46.8705 33.8962 12.0244 21.2627 1.31842e+06 303505 732882 -126999 229235 -236654 
81 1 49.7489 33.7586 12.1126 13.6528 1.53915e+06 542307 1.15378e+06 56649.9 50255.6 -396717 
86 1 39.4514 36.5683 11.7648 21.3596 791315 335887 1.0313e+06 -242695 196054 -15806.6 
90 1 42.4347 36.3015 11.7914 9.29475 559624 156052 111330 11775.2 216272 -59039 
94 1 45.4298 36.302 11.9777 7.55675 -448702 -830126 -1.09565e+06 -283816 -18911.1 -125925 
98 1 48.4099 36.2051 11.9509 7.19488 -492175 -434493 -877595 -166953 -130284 -155918 
83 1 37.9973 38.8628 11.9039 11.8349 -116914 -48405.3 47644.9 -146255 -98519.5 63786.6 
108 1 39.4938 41.2444 11.7707 7.58256 -489239 -957221 -1.21036e+06 43505 -27646.7 85414.1 
85 1 40.9541 38.8392 11.8109 7.63134 -25582.7 -527899 -508525 128466 30195.6 -157235 
89 1 43.9333 38.775 11.8035 7.66036 114527 -280944 -647182 16256.8 -71801 -107403 
93 1 46.893 38.7446 11.9458 8.13562 -187906 -434046 -603113 -362661 152121 -93305.9 
97 1 49.7584 38.7515 11.9585 7.40515 -274699 -416117 -782521 -74307.5 32174.9 91892.1 
104 1 36.6285 41.3399 11.8456 12.1969 -163176 17240.2 158302 -84903.9 11923.8 99389.1 
100 1 35.1752 43.6648 11.7746 11.6705 316510 472700 565288 -150026 -117677 143164 
103 1 38.0633 43.8419 11.8121 7.69348 -611627 -448284 -1.1543e+06 -77261.9 54432.4 189363 
112 1 42.4194 41.2979 11.8481 7.71502 -544725 -391835 -777113 -46099.9 -3101.49 -30624.4 
107 1 40.8789 43.7565 11.8324 7.41523 -589819 -465284 -1.16236e+06 215474 -40350.2 157489 
116 1 45.2796 41.2667 11.8356 7.44941 -323445 -343541 -1.01125e+06 -152615 -228948 -12410.4 
111 1 43.7689 43.8136 11.8041 7.7025 18569.3 159911 -163064 143095 -127875 104730 
115 1 46.6375 43.8137 11.7756 7.05619 -210272 -29627.5 -638461 -29105.3 -20580.9 201374 
120 1 48.2018 41.2264 11.9001 6.90437 62556.5 -270386 -745966 -96084.8 16431.1 5395.22 
119 1 49.4458 43.8781 11.9098 6.95168 212431 552301 -237746 101073 96743.1 110601 
126 1 33.646 46.1702 11.6957 12.4275 106102 50162.9 331918 65923.2 265197 -99265.1 
130 1 36.5274 46.267 11.808 8.24129 207748 123317 -683170 189330 -5489.12 34312 
134 1 39.4788 46.3218 11.7083 8.5925 115770 -206138 -461754 -200077 78119.9 9929.51 
138 1 42.3816 46.3444 11.8097 7.72482 508650 420655 -101794 111818 -233415 -33096.5 
142 1 45.2964 46.4098 11.7132 8.26658 -160486 688436 195307 -60295.5 20122.7 -90874.8 
146 1 47.9992 46.4232 11.832 6.88114 -331013 410258 -400841 186569 -157175 -84567.4 
122 1 32.5004 48.4894 11.5188 21.5826 -479086 76607.1 697602 99935.5 95843.6 370667 
125 1 35.0964 48.8574 11.7076 8.08255 -1.1635e+06 -231529 -527973 -67704.6 64011.8 39816.7 
129 1 37.9477 48.9032 11.8222 7.74522 -524204 -156408 -954345 -4970.5 -13002.2 221828 
133 1 40.8209 48.8683 11.7723 7.57082 -90290.8 58466.4 -602412 -77949.3 39285.9 -86563.6 
137 1 43.7306 48.991 11.7599 7.75901 87250 527712 -337639 29852.6 -222376 75430.2 
141 1 46.6186 49.0256 11.7656 8.09966 254691 628309 33824.5 162631 -105004 49664.1 
145 1 49.5245 48.9816 11.9009 8.15906 563510 836616 280063 115722 111253 3230.68 
163 1 42.6488 34.762 14.1747 25.323 1.10492e+06 352980 1.58539e+06 -194551 5243.67 -13658 
167 1 45.4628 34.504 14.2435 12.8094 547751 129478 483582 -130399 421338 -133302 
153 1 44.044 33.9466 16.5493 15.6674 651266 217469 1.08683e+06 -580038 260874 -296870 
155 1 46.9457 33.7559 16.6635 10.6897 1.18519e+06 660338 901988 -272018 112867 -320883 
171 1 48.2597 34.608 14.3607 10.1355 59870.3 -412350 -130233 -26427.9 86032.1 -80630.3 
157 1 49.721 33.7432 16.7199 10.1586 379218 493575 519713 -75946.2 -291338 -194040 
221 1 49.4045 49.0079 16.3803 7.92767 194174 287965 -13375.2 -35720.2 87713.2 206667 
158 1 38.3943 37.2913 14.1806 22.285 430079 343415 983657 -369820 80864.5 35961 
162 1 39.5829 36.4867 16.5335 26.132 741515 528540 1.04915e+06 -372198 -246156 -75238.4 
160 1 41.0964 37.0596 14.0784 8.77962 390703 315669 601768 -5898.58 151153 -118523 
166 1 42.4123 36.2681 16.5651 9.72102 830888 725086 602425 -195679 2179.58 89249.4 
164 1 44.0006 37.131 14.1839 8.08492 -248672 109253 -337758 94708.5 -17124.5 32560.4 
170 1 45.371 36.2855 16.4389 7.78095 -176455 -490842 -993352 -264392 -40783.9 518319 
168 1 46.8515 37.0069 14.2488 7.58403 -1.29011e+06 -47915.2 -1.40248e+06 111936 -176356 150636 
172 1 49.6113 37.1597 14.258 7.42425 -389720 -61534.2 -503181 -126254 21393.1 204146 
174 1 48.2175 36.3368 16.5401 7.56033 -384548 231211 -1.06401e+06 87972 -45125.6 161051 
177 1 36.7633 39.8101 14.1581 17.7067 518290 589974 345469 -362616 170066 -78505.6 
181 1 39.5968 39.6755 14.0722 6.98888 -301117 -452015 -899943 -293196 -36191 175158 
159 1 38.1406 38.893 16.4571 12.0038 202818 579657 698104 -496499 -81333.6 -36142.3 
185 1 42.5089 39.6042 14.1499 7.43521 -50245.3 245640 -61943.3 -30879.6 214977 38549.1 
161 1 40.9644 38.8278 16.3722 8.37674 314795 84705.7 50989.1 -309010 40491.4 75287.6 
165 1 44.0138 38.7722 16.5462 7.13297 176892 177046 -273742 -137933 -19465.5 -130704 
189 1 45.3468 39.6907 14.1516 7.47769 -139539 -145960 -659769 30713.1 -109532 107536 
169 1 46.7826 38.8939 16.3987 8.355 -512800 -107630 -640968 -173761 38172.5 355802 
173 1 49.647 38.9509 16.626 7.91564 61938.1 234110 -177681 -331572 -133303 160250 
193 1 48.2957 39.7412 14.25 7.23691 -114830 -128330 -780441 -21855.4 146635 184374 
175 1 35.308 42.2128 14.1659 17.3659 -43587.2 177764 200819 -297994 -46425.3 91672.2 
180 1 36.537 41.3562 16.4308 12.0686 67633.9 436257 284396 -255079 -147826 -82499.7 
176 1 34.9961 43.7438 16.4792 13.1324 353483 404756 254653 -83315.9 -22944.6 472.478 
178 1 38.0666 42.2472 14.075 7.26863 -784434 -911067 -967171 -4457.97 -134221 43817.9 
179 1 37.9319 43.8213 16.4263 7.54563 18403.5 -685375 -245876 328678 -67028.9 -53415.5 
184 1 39.3899 41.4094 16.4302 7.03112 102086 -195744 -21165.9 509.667 -58934.3 116828 
183 1 40.8292 43.8222 16.4151 7.30616 -250026 -98104.9 -320150 -60983.4 -87566 5412.83 
182 1 40.9407 42.19 14.0564 7.50066 -112126 -179028 -609899 -70699.4 75723.5 90798.1 
188 1 42.3099 41.2711 16.4707 7.32795 240645 84011.7 -100024 -318357 -99936.4 82970.8 
187 1 43.7131 43.85 16.445 7.49964 -262652 -179227 -812219 129076 49145.5 57252.2 
186 1 43.8496 42.1435 14.1565 7.42234 -242842 90915.6 -708344 100600 -319610 5719.76 
192 1 45.1816 41.4085 16.3951 7.98887 -416241 -178763 -592473 129802 -257447 112827 
191 1 46.6104 43.9666 16.4118 7.86368 -379953 -314350 -734133 231265 28446 159311 
190 1 46.7067 42.2458 14.0689 7.7133 -316743 -189672 -680101 -144294 -105855 30930.7 
194 1 49.5805 42.2592 14.2084 7.46456 -515775 -421389 -555897 -165918 -9573.51 -89172.9 
196 1 47.9952 41.4878 16.4736 7.10455 -173862 -110136 -383813 43368.7 109958 -45665.3 
195 1 49.5268 43.9435 16.4402 8.01535 -132143 -88665.7 -529198 -260242 -45836.1 15176.7 
199 1 33.8086 44.6475 14.1446 17.6696 386073 945300 797978 -332490 -62625.8 -141848 
202 1 33.6421 46.2773 16.3218 12.0092 -13502.2 32232.2 314596 -115810 -85005 -222496 
206 1 36.5089 46.2282 16.3814 7.47352 67027.4 -165189 -267126 378114 118184 -227152 
203 1 36.55 44.6233 14.1125 7.93633 -399727 -668264 -609170 117077 -85930.6 -84847 
200 1 35.0202 47.1897 14.0106 7.53215 -846539 -189146 -387280 -80831.1 160902 17032.8 
207 1 39.5056 44.703 14.0742 7.23097 -248272 -268064 -739567 -64262.2 -94361 -276850 
210 1 39.3684 46.2697 16.4012 7.14742 -73245.2 -185230 -242648 143674 183163 -216387 
211 1 42.345 44.7464 14.1386 7.48639 -89105.7 327331 -202472 -68951.6 -46260.1 92751.8 
214 1 42.2735 46.4069 16.4603 8.45468 91271 394390 -240800 44531.2 -127461 -71510.4 
218 1 45.1361 46.4101 16.4177 7.91744 -81038.7 96610 -413797 227135 52802.2 -80440.8 
215 1 45.205 44.7857 14.1759 7.56929 143279 248896 -154928 114237 -149260 -105526 
222 1 47.995 46.534 16.463 7.48149 -162134 53151.4 -463625 -95567.6 -8040.16 -72005.4 
219 1 48.1268 44.7413 14.1816 7.45143 -120483 -201434 -561469 10360.5 203546 84258.2 
198 1 32.4423 48.6651 16.3692 25.3298 -324884 258309 828855 -43052.3 -36472.7 45807.7 
197 1 32.4211 47.2135 13.9628 32.3864 -456444 451891 806705 -234934 10598.8 24059.5 
223 1 33.5424 49.6434 13.9777 9.56526 311946 233239 310746 13199.7 192740 20759.8 
224 1 36.5214 49.6824 14.0939 7.98515 195288 -460715 -511567 155776 168731 -205184 
201 1 35.0945 48.7955 16.3968 7.61726 -518037 -371603 -452128 -87183.6 139019 206062 
204 1 37.9538 47.2463 13.9944 7.4665 52615 -187392 -343800 -6474.72 -189829 60094.5 
205 1 38.0102 48.7749 16.398 7.47081 -120944 66936 -29172 11869.1 -174204 35615.3 
225 1 39.4712 49.7029 14.0829 7.23125 -650637 -558276 -826592 326059 -124864 64745.5 
226 1 42.2555 49.7796 14.11 7.87959 -451999 123132 -613320 -43129.5 -122612 218622 
208 1 40.8286 47.2879 14.1628 7.62371 179898 -298951 95660.7 74220.2 -46627.2 129305 
209 1 40.8026 48.9644 16.4545 7.6483 -421556 35526.6 -402916 214491 24859.9 -2977.97 
212 1 43.7786 47.285 14.1243 8.07035 393601 227880 132074 175758 -184335 -74916.7 
213 1 43.6859 49.0124 16.3663 7.70847 -64158.8 -6590.06 -45919.5 17267.4 -37121.1 -28185.9 
217 1 46.5704 49.0625 16.3662 8.15553 -174753 137440 59940.1 86955.7 -55416.5 -29947.3 
216 1 46.6651 47.3037 14.104 7.6718 181191 490396 -224536 80796.8 64511.3 -166126 
227 1 45.1506 49.9075 14.0485 7.67443 -5981.01 -19362.2 -467321 -228698 -49267 37653.6 
228 1 48.03 49.9293 14.0983 7.84602 121969 400829 -494031 5455.98 72555.7 -25442 
21 1 49.9142 38.5651 5.0301 0.498787 593797 619652 -697794 258214 -112247 -194309 
232 1 46.774 32.3464 19.0032 41.2963 614518 659355 706659 -2186.66 743.886 -668.794 
239 1 42.6218 34.7633 18.8451 19.2794 489053 345918 563449 -301476 -222349 310854 
230 1 44.1653 32.5572 18.8983 61.4951 638853 263795 887448 -40145.1 -17337.9 -30761.2 
243 1 45.4406 34.8969 18.8237 7.21114 -588101 -820429 -681799 -398143 35616 151729 
247 1 48.2434 34.8526 18.9488 6.65156 -359230 -609805 -450510 277033 -682.012 -78633.3 
3049 1 49.2847 32.4224 19.1212 47.0227 553219 174823 806142 145707 -58205.1 -115948 
234 1 38.2903 37.3411 18.8283 22.9812 -156467 274105 926359 -281030 -6201.88 -11192.6 
236 1 40.8896 37.1226 18.8233 10.1393 -361825 421973 457087 -66507.2 -115942 -154246 
240 1 43.7282 37.2862 18.9257 7.56493 209676 -290222 -134950 36797.9 -326184 -81775 
244 1 46.733 37.3915 18.7448 7.31014 408811 -541450 -205238 -213783 161277 12587.4 
248 1 49.667 37.365 18.941 7.09051 -189063 24129.3 -147158 -339289 202176 26085.2 
253 1 36.6654 39.7429 18.7696 19.9654 666438 586957 598319 -494787 -33970.1 -143638 
257 1 39.5482 39.7213 18.7721 7.01789 -448233 -582727 -170268 -218027 -168333 13524.7 
261 1 42.3235 39.735 18.7808 7.84745 -441949 -171187 -249568 209994 -179895 236623 
265 1 45.2073 39.8337 18.7839 7.18686 -132006 -241121 -399179 -60438.3 -277501 -179453 
269 1 48.0792 39.8758 18.853 7.50971 -89459.7 -175420 -71443.2 -124427 179708 29362.4 
251 1 35.2164 42.2112 18.7557 17.7755 69829.5 513821 219064 -282106 -70976.6 68016.5 
254 1 37.9538 42.1375 18.834 7.79153 -853711 -423804 -604775 -117325 -7830.46 20774.1 
258 1 40.8272 42.2478 18.8494 8.01512 -789221 -1.09414e+06 -328907 -65921.3 2723.17 -5015.09 
262 1 43.6461 42.281 18.7655 7.45742 -465508 -872924 -433046 144632 -149701 121576 
266 1 46.6019 42.3345 18.7791 7.66184 -34546.6 -584772 -183635 159542 63068.3 89230.7 
270 1 49.5174 42.3339 18.8172 7.71314 66588.8 217827 133233 117489 -87449.3 -15788.6 
275 1 33.7341 44.6725 18.7232 18.7406 364924 1.16238e+06 880144 -318770 82971.4 -62075.5 
279 1 36.4835 44.68 18.7761 7.5164 -216195 -472732 -438502 -89015.4 3035.21 36712.1 
283 1 39.4491 44.6421 18.8156 7.51164 -297997 -338816 7315.24 293137 -116485 136603 
280 1 37.9755 47.1278 18.7224 8.09335 -229045 85595 -117027 -130447 77226.9 78049.6 
287 1 42.2736 44.6465 18.7331 7.56217 -901719 -752453 -705788 133330 -20516.2 63978.6 
291 1 45.1516 44.7257 18.7276 7.56268 -536183 -251453 -345924 187521 -71812.1 9827.98 
295 1 47.9901 44.8115 18.7829 7.57049 -121050 -108915 -96650.8 -39568.8 -141816 -32928.6 
273 1 32.4446 47.2716 18.7357 31.5164 -316789 677353 1.0913e+06 -187848 71542 47808.9 
299 1 33.5696 49.7557 18.676 8.86189 -75929 -166961 -151551 25137.3 -113769 67758.9 
276 1 35.0322 47.1847 18.602 7.77578 -853215 -397122 -651903 38988.2 -64476.2 5705.53 
300 1 36.4438 49.7111 18.7971 7.65689 -278879 -346615 -679573 -290703 -24621.6 191975 
301 1 39.32 49.6909 18.7576 7.24361 -62963.2 -322138 -766790 -22509.5 227939 9019.44 
284 1 40.7627 47.1835 18.7418 7.91019 -14144 231354 152539 -25898.7 64091.3 -121242 
302 1 42.3369 49.7023 18.8141 7.73841 25299.9 245329 -92574.8 -59233.4 119361 -117720 
288 1 43.7059 47.2011 18.7253 7.75188 263246 215735 22553.3 127037 -108387 -166608 
303 1 45.1211 49.7651 18.8568 7.83834 -232379 482705 340422 -274.512 48605.9 58341.3 
292 1 46.6467 47.3151 18.7762 8.04779 -164696 269688 142909 212724 195751 -59595.9 
296 1 49.41 47.3839 18.7612 7.4691 -242973 195000 -131319 66456.5 -210843 42185.3 
304 1 47.9326 49.9183 18.7239 7.18667 -141362 -77136.8 111108 -169473 22043.8 52881.8 
3122 1 49.2495 32.6432 23.6634 43.8271 982784 -89661.2 596457 241048 7225.23 185349 
229 1 43.944 34.1435 21.1299 14.4721 315329 448826 881458 -289674 -119238 172194 
231 1 46.7637 33.9853 21.2533 9.3901 785701 538582 708128 -208175 -60935.3 16337.9 
233 1 49.5667 33.8682 21.3471 10.742 812063 449359 218831 154482 19272 4740.45 
323 1 48.0798 34.9682 23.5684 7.10754 -803964 -968900 -181692 136831 -90571.2 116300 
238 1 39.3661 36.5529 21.2135 27.7086 694311 344106 1.19512e+06 -254357 -134862 55278.6 
242 1 42.1971 36.3294 21.2886 10.65 889592 448408 317985 -31541.7 -234610 -9478 
246 1 45.312 36.5918 21.1247 8.13436 161315 -372281 -238124 -203312 -150886 55167.9 
250 1 48.1438 36.4957 21.1853 7.58045 -30231.5 16128.8 -359482 -252656 -15315.2 -131802 
329 1 36.5868 39.7797 23.4572 25.8663 533645 1.104e+06 1.17113e+06 -529681 -78907.3 141680 
235 1 37.9801 38.9298 21.0949 12.0378 -120203 118558 692698 -99229.7 -79708.3 -107841 
260 1 39.3482 41.4006 21.1403 7.87382 -91940.7 -156714 -414361 132825 -7767.41 41162 
333 1 39.3665 39.7101 23.5284 7.36527 -726262 -267182 -184943 57525.3 28087 -37236 
237 1 40.8087 38.8527 21.1676 7.446 4955.19 -122525 47287.2 -83655.2 -38816.3 100463 
241 1 43.699 38.9392 21.1104 7.8774 108470 -263167 -351752 351544 -97981.1 14272.8 
245 1 46.6278 39.0058 21.1257 7.60656 -29130.2 -556677 -206211 -404316 -47337.6 263701 
341 1 45.0529 39.8571 23.5684 8.30767 430635 284368 721203 116241 -9689.04 24368.2 
249 1 49.5074 39.0069 21.2238 7.69345 -1130.11 131382 -417403 -263046 142890 94795.1 
345 1 48.0129 39.9235 23.5339 7.68118 -172787 -386947 157306 -222686 21170.9 -34234.6 
256 1 36.4587 41.2564 21.0172 12.4093 145769 260489 368457 -103526 23331.7 54066.9 
252 1 35.0578 43.7561 21.0434 11.3133 211969 658528 617193 -308264 -73919.4 69410.5 
327 1 35.0973 42.2888 23.3685 24.3723 663026 1.14639e+06 1.28801e+06 -542270 -12424.4 157310 
255 1 37.8536 43.8006 21.1248 7.78987 267271 152067 -212391 358635 16515.3 16860.4 
330 1 37.8581 42.2063 23.438 7.97811 -131619 -31954.9 -39799.2 77225 -64503.2 54274.7 
264 1 42.2385 41.3441 21.1503 6.96573 -136146 -169941 -307438 99212.2 -130629 115930 
259 1 40.826 43.9113 21.1129 7.80009 -167916 12029.9 -266697 -151077 -107474 -53657.7 
263 1 43.622 43.9816 21.09 7.51855 -433521 -176148 -197651 385913 -63106.9 62476.3 
334 1 40.7177 42.2782 23.5287 7.777 -283071 -90983.5 -6709.03 179834 38377.9 56907.9 
338 1 43.5577 42.3563 23.4604 7.41178 228486 72646.6 562199 -125619 -51274.7 -17382.3 
268 1 45.0807 41.4591 21.0805 8.13037 -121034 233195 275931 31468.1 -39467.3 -63566 
267 1 46.5016 44.0416 21.1462 7.13272 -134532 -152893 -206261 170784 -46898.3 -35198.5 
342 1 46.4764 42.3892 23.5441 7.89479 380612 -110074 280233 197438 -35180.9 -40396.9 
272 1 47.8953 41.5211 21.2099 7.20061 188624 111322 108888 -58919 -124485 29928.1 
271 1 49.4278 44.0458 21.1438 8.24138 -326896 -473826 -216787 404278 104746 79050.4 
346 1 49.4409 42.4258 23.4982 8.16749 -122251 -324650 151791 137999 39095.8 -46489.5 
278 1 33.6117 46.2336 21.1073 10.9954 446868 917230 1.34618e+06 -300029 -34637.1 56500.3 
351 1 33.68 44.7766 23.5065 24.1242 391876 1.21405e+06 984119 -363503 -89322.9 60343.8 
282 1 36.4176 46.3791 21.0087 8.01405 340111 220351 130086 346239 99726.6 -38036.6 
355 1 36.3827 44.7287 23.3888 7.48388 -100540 25493 144944 23404.8 14668.5 -162440 
286 1 39.322 46.4148 21.1486 7.65333 406895 398380 68395.2 153937 59166 53255.5 
359 1 39.3103 44.7881 23.4866 7.66038 423690 52725.4 228457 196491 23534.1 86998.1 
290 1 42.2739 46.3591 21.1126 7.78107 228815 -440525 241297 171083 121004 124738 
363 1 42.2393 44.8493 23.4879 7.77072 308203 -181576 250503 268137 -75287.8 -21464.5 
294 1 45.1632 46.4788 21.0758 8.1175 164146 -122464 495016 362166 -33260.4 62093.4 
367 1 45.1242 44.8109 23.5065 7.84017 -53592.9 -26199.6 158034 292582 153043 -21274.3 
298 1 48.0886 46.4254 21.1437 6.88985 -409729 -446296 -25705.7 17367.1 -98285.5 98899.3 
371 1 47.9848 44.815 23.4739 7.48984 -240296 112986 -85327.7 82468 -20565.1 75706.1 
274 1 32.3867 48.7446 21.0857 24.0326 -112778 1.24702e+06 956117 -60439.7 -131249 -111659 
349 1 32.2831 47.2495 23.4079 27.4556 432774 652720 1.06823e+06 -204608 -4225.83 -106686 
375 1 33.5492 49.7062 23.3464 9.63606 -166715 -269523 -125949 130436 -225977 -220025 
277 1 35.0267 48.7853 20.9657 7.61992 -516160 -41761.9 -322722 46721.6 268462 186841 
352 1 35.0368 47.3017 23.4461 6.83427 62400.7 -507330 -157721 26269.8 -20137 -231147 
376 1 36.458 49.7233 23.3999 7.60899 31415.9 -690691 -513124 4768.18 113230 36348.6 
281 1 37.9394 48.9284 21.0318 7.75508 -276282 -53219.3 -336510 -24214 -22331.6 102972 
356 1 37.9417 47.2275 23.4681 7.82535 62698.1 -227604 -49459.7 227409 119854 -328581 
377 1 39.3941 49.6746 23.3807 7.88459 144605 125056 375900 32129.3 -14705.9 47931.4 
285 1 40.8292 48.8812 21.0585 8.03409 44746.5 63345.9 -117503 -33204.4 135819 55805.9 
289 1 43.7345 48.8471 21.1533 7.26559 384790 309164 288021 189640 92770.7 182169 
360 1 40.8449 47.2798 23.4697 7.58932 -115441 -422406 142879 282292 -77800.1 -27945 
364 1 43.6983 47.2943 23.5604 7.96381 -64434.8 116558 201379 92916.2 95126 77669.2 
378 1 42.2526 49.7509 23.4807 7.83191 218795 80399 394479 8631.4 -68798.2 -126354 
293 1 46.6463 49.0182 21.1789 7.18467 -52520.4 145580 68311.5 -253264 -188640 89913.5 
368 1 46.534 47.3925 23.5304 7.22806 221397 400942 558407 -61447.5 -21162.8 175766 
379 1 45.1695 49.9235 23.543 7.27607 129526 -164923 516837 123315 60464.7 -57314.9 
297 1 49.4505 49.0384 21.1623 7.41785 -296241 -344535 -49083 -34579 36527.7 -25670.2 
380 1 47.995 49.8666 23.5306 7.29224 -615618 -457827 -239146 129471 -166297 -148266 
372 1 49.3911 47.4389 23.5037 7.06464 -318362 -316803 95521 197058 44347.1 -38743 
308 1 46.5711 32.6177 23.6505 36.0683 933039 -12770.6 652820 14933.6 -22507.7 -66174.1 
315 1 42.5014 34.8687 23.596 19.0405 403632 -122302 380422 -146503 -250846 341132 
319 1 45.3534 35.0837 23.571 6.93006 -812544 -1.17014e+06 -88246.7 66515.9 154755 -230256 
306 1 43.9697 32.7547 23.4913 39.5813 371801 49686.4 886508 205535 -24764 -6532.32 
305 1 43.7331 34.158 25.8723 14.2953 458820 120284 313407 -103461 -214054 129161 
307 1 46.7056 34.028 25.9704 9.07239 1.22985e+06 623343 423916 -131317 10451 -681.858 
309 1 49.5041 34.1297 25.9345 11.9636 423171 536583 908336 -25412.3 64956.5 -148540 
310 1 37.9704 37.3519 23.4456 36.808 799021 740561 1.58261e+06 -275924 51099.7 79692.5 
314 1 39.4027 36.7473 25.8648 23.4314 465842 101794 1.33168e+06 -517310 233256 16286.6 
312 1 40.76 37.2751 23.5748 10.3156 364898 120494 143694 39922.7 232956 88287.5 
318 1 42.1934 36.4679 25.953 9.73908 35563.5 -21452.6 360820 -23695.6 -139470 62253.6 
316 1 43.6099 37.3515 23.4194 8.37404 79307.7 -288701 -28525.8 -141222 -315010 58498 
320 1 46.6192 37.5622 23.5505 6.8187 -37355.2 -973917 -81057.9 -289487 -64458.8 110026 
322 1 45.0253 36.6446 25.8142 7.10103 -84814.1 -201457 -170084 39700.3 138517 -200508 
324 1 49.4732 37.4243 23.5156 7.96588 -495977 -181293 65106.2 -281298 -61185 20048.6 
326 1 47.9035 36.6722 25.9636 6.7958 399997 413425 332543 151796 -35218.1 105614 
311 1 37.8673 39.0475 25.8253 10.3412 381026 766384 1.25411e+06 -394901 49613.7 142132 
337 1 42.1567 39.896 23.5442 6.81218 -385024 -209278 -169433 82708.6 -116826 327460 
313 1 40.7994 38.9908 25.9045 7.67801 -590176 -335812 -111188 -234630 -7904.1 -197419 
317 1 43.5447 38.9892 25.8358 7.77482 -426635 2025.52 247191 245327 69371.9 115786 
321 1 46.4694 39.0875 25.9755 7.60954 148729 -349740 -91638.8 41221.2 -68138.5 -90790.4 
325 1 49.4402 39.1052 26.0011 7.83603 -263571 -65476.8 -229313 -178246 24718.3 86032.7 