ITEM: TIMESTEP
50000
ITEM: NUMBER OF ATOMS
5538
ITEM: BOX BOUNDS pp pp pp
0.382303 99.6177
-0.0776302 100.078
4.11978 95.8802
ITEM: ATOMS id type x y z c_csym c_2[1] c_2[2] c_2[3] c_2[4] c_2[5] c_2[6] 
4 1 49.2971 33.6115 7.47856 45.3639 461849 -618068 1.19844e+06 -531249 87194.6 16948.9 
6 1 37.1494 38.4065 7.42392 33.9663 745494 -81370.1 1.08624e+06 -317239 208823 -180797 
8 1 40.0994 38.1098 7.40307 12.1574 648929 -49237.3 684853 -331439 35992 26581.6 
1 1 42.9629 36.6319 5.1707 19.6041 951115 308007 1.52801e+06 -180115 -53869.5 -557471 
11 1 41.677 35.8991 7.60591 36.1265 557483 -375974 684030 -298776 -148199 -10574.7 
12 1 42.9227 38.144 7.43367 0.325994 -529986 -1.06707e+06 -162411 -355210 -125041 -145866 
3 1 45.7013 36.5224 5.07289 11.5192 1.21906e+06 438868 1.37425e+06 -44659.2 -4922.19 -242066 
15 1 44.4606 35.6881 7.50884 21.916 934925 127363 1.03846e+06 -255206 340784 -301542 
16 1 45.8633 38.0528 7.44053 0.54391 -469772 209102 -132831 -266936 33106.6 -24212.6 
2 1 47.2797 35.5033 7.50368 10.9788 1.54993e+06 925716 1.58184e+06 -186474 59454.6 -285948 
19 1 48.6789 36.4304 5.03116 4.70095 1.54015e+06 1.10727e+06 1.26762e+06 -19152.3 -337376 -102800 
228 1 48.0697 49.6659 14.5494 7.77291 -194057 -407304 215275 -219075 -75431.4 -52132.1 
7 1 36.0003 39.259 5.13263 38.6341 88379 424772 959283 -239725 57269.2 -86870 
25 1 35.7566 40.754 7.43471 21.3849 153941 -128507 327620 -119174 3966.33 -37683.9 
10 1 38.6002 39.026 5.00086 12.889 -180600 371505 915514 56940.6 -140383 83388.5 
29 1 38.6158 40.5798 7.45263 0.54162 -102226 92304.3 56204.7 -98501.1 -259303 70823.9 
14 1 41.3723 38.9415 4.99886 6.36037 457121 406778 95350 244778 -121063 37788.1 
33 1 41.436 40.4988 7.37162 0.681644 -124931 88541.5 525112 27540.2 -126954 8858.9 
18 1 44.3671 39.0071 5.11253 0.264912 388697 248037 320790 114649 37199.7 15919.3 
37 1 44.2872 40.6584 7.45155 0.177662 -182579 16730.6 159349 -53190.5 -167639 -155687 
78 1 48.5775 38.1374 7.37985 0.310789 -444628 307483 170319 225785 144395 36407.1 
22 1 47.1995 38.9954 5.01822 0.275259 -82901.6 506803 -556856 78848.9 -56998.1 -274403 
41 1 47.082 40.6925 7.35254 0.345109 -170094 106873 -74066.9 19265.7 -35330.9 220276 
220 1 49.638 47.2397 14.5494 7.31338 -135741 192082 607347 -99831.7 -181063 -78909.2 
20 1 49.9793 40.6631 7.45513 0.151511 49207 10544 -217445 205598 -170187 257896 
28 1 34.5845 41.6734 5.11066 28.2939 16.9144 539057 313673 -681955 161196 81511.5 
24 1 32.9976 44.0791 5.20392 31.4764 375676 1.08912e+06 782574 -484318 9659.36 112806 
32 1 37.2908 41.6159 5.05225 0.415655 -1.10578e+06 -811254 -160930 -446572 -82042 24685.1 
27 1 35.7297 44.0778 5.01304 0.655093 -757871 -1.12951e+06 -340682 -299039 81705.1 -163859 
26 1 37.0919 43.1845 7.50354 0.16865 -388826 -776701 -366611 56488.3 158852 62579.3 
9 1 40.1175 41.529 5.05494 0.286206 -290191 -52611.9 132035 38801.1 88627.9 -41108.7 
31 1 38.6047 43.997 5.1302 0.19474 -339649 -402912 374520 -300625 22779.4 33623.5 
30 1 39.9972 43.2512 7.52649 0.674385 -182160 -84503.6 -156563 -157999 -138425 108246 
13 1 42.9503 41.4988 5.01323 0.248487 97801.6 413003 -14768.3 264601 -117648 -99261.4 
36 1 41.4219 44.0032 5.1033 0.192772 -477946 -196641 -137460 -29891.9 -158952 -22259.4 
34 1 42.8244 43.1034 7.37767 0.287973 -238475 130114 126947 182766 -317602 217669 
17 1 45.8096 41.6558 5.12672 0.302997 136947 437048 -455190 60418.7 -90058.7 27377.9 
40 1 44.2374 44.1628 5.03709 0.263459 -151863 7373.46 -262284 114944 -157244 -80656.2 
38 1 45.6601 43.2209 7.39243 0.148507 -324040 -422889 -468501 134537 -34250.4 -238087 
39 1 47.114 44.2434 5.10454 6.95001 455236 542940 242636 -86810.7 37398.9 -152189 
44 1 48.6887 41.5952 5.13376 0.43214 -543088 216719 -384934 -10276.1 33212.4 37103.7 
67 1 48.5444 43.2029 7.47517 0.290016 -169925 -274549 -147194 -100816 146541 -146140 
50 1 31.6787 46.5653 5.26716 33.4218 -320070 483908 823669 -283691 104458 141221 
54 1 34.2763 46.5304 5.04444 0.737537 -1.40897e+06 -754006 -287734 -188643 175718 80112.9 
47 1 32.8738 45.6454 7.55949 19.252 -11748.2 237345 520646 -284500 -84130.9 306393 
58 1 37.1231 46.521 5.09823 0.314709 -304032 -541857 -66600 -336720 -19097.6 -209245 
62 1 39.9855 46.5012 4.99561 0.249004 -121832 -98124.5 239679 1932.19 -92343.3 -241310 
55 1 38.4353 45.6811 7.51565 0.191844 -852632 -974482 75218.6 -209710 -201472 -69277.6 
35 1 42.7921 46.5975 4.9364 0.445887 -149448 -63206.9 300725 166537 -100886 -207094 
59 1 41.2847 45.6168 7.43997 0.106115 -240816 -713863 511460 -297421 -60776.5 -136006 
1438 1 45.5701 46.6449 5.19471 13.1124 569994 608356 799868 -77642.5 142252 -66630.4 
63 1 44.1453 45.6318 7.45651 0.187647 -305735 -673042 -27840.6 19569 -126170 -45552.4 
43 1 49.9071 44.192 5.03462 7.64883 171965 440507 342212 21978.1 103539 -232061 
68 1 49.8013 45.6935 7.35299 6.64975 148984 88246.5 286632 -144996 82843.5 -145965 
45 1 31.4989 48.0797 7.47576 46.2299 51007 901013 1.0997e+06 149874 55347.7 80887.5 
46 1 32.7283 48.9711 4.99423 12.6175 -409208 -142539 825312 -337277 106073 179366 
49 1 35.5014 49.0127 5.03446 0.229226 -525106 -564553 -321914 -209260 -200788 61794.5 
52 1 36.892 48.0903 7.38472 0.286472 -564279 -678873 64153.5 -106198 -26833.3 -230180 
53 1 38.387 48.9713 4.95604 0.283231 -322246 -674972 -405218 -252365 75365.8 -179987 
56 1 39.7774 48.0126 7.3917 0.307819 -229980 -781617 466859 -76686 32603.6 -34913.3 
57 1 41.2406 49.0473 5.06109 0.182183 352272 -33417.4 456171 64240.9 -152982 -61549.1 
60 1 42.6348 48.0487 7.40367 0.2524 -138913 -10582.9 814542 -54343.3 -142378 -96644.9 
66 1 44.1814 49.0751 5.04537 6.96739 690507 216265 959965 -110848 110342 -20580.8 
65 1 48.2692 48.2054 7.35518 20.896 681519 191416 732668 -321275 -26529.5 2618.19 
87 1 43.0084 35.0757 9.715 31.2821 839940 129815 743122 -404978 232745 -107707 
91 1 45.962 34.9747 9.97524 17.7664 1.08098e+06 -297724 687884 -320168 205863 -401961 
95 1 48.7674 34.7976 9.91434 11.6097 305743 162023 1.21309e+06 -39712.4 -119554 -263860 
82 1 38.5965 37.5469 9.68133 29.9211 234242 -18260.8 1.49058e+06 -747628 314081 -334906 
84 1 41.2962 37.3726 9.90555 6.38711 338867 -143587 265265 -42513 -369881 -315004 
88 1 44.3061 37.3832 9.78043 0.404665 235793 -571763 3619.73 -240395 -134840 -69997.1 
92 1 47.2685 37.3056 9.79016 0.342309 -492108 -782259 -175460 -419249 -84264.3 227095 
21 1 50.0058 39.0427 5.02358 0.417179 134080 318517 48409.4 322567 -281035 76941.1 
101 1 36.972 39.8434 9.77811 23.8889 338170 591057 972434 -308199 87106 74281 
105 1 39.8113 39.7995 9.80184 0.423951 -285156 -1.18052e+06 -68421.6 -217751 -213146 203700 
109 1 42.7621 39.7662 9.87622 0.266557 510387 80955.8 359342 121685 70351.2 -105768 
113 1 45.7212 39.763 9.72686 0.272245 63432.5 -35346.3 -152802 -117698 -238249 15774.8 
117 1 48.5438 39.7377 9.76001 0.238942 -532736 -196918 137793 -398998 75425.7 21595.5 
23 1 34.278 43.14 7.42756 21.8417 47615.9 235995 574933 -224649 -96942.3 154009 
99 1 35.6185 42.331 9.7142 20.6757 -308247 2300.89 136238 -489053 105988 19643.5 
102 1 38.3681 42.2524 9.8309 0.22939 -438458 -338772 172804 148437 -1972.04 -2851.73 
106 1 41.2316 42.2412 9.77468 0.270045 310277 408331 722921 74929.4 -335842 177164 
110 1 44.1314 42.3551 9.72211 0.326488 64467.6 -18014.4 -102550 -20793.7 -215751 -18835.4 
114 1 47.0045 42.3933 9.73999 0.188499 -217166 34657.8 -124562 -141820 51277.2 74629.9 
118 1 49.8181 42.2914 9.86358 0.326287 175700 170574 199013 -50017.3 -155041 58056.7 
123 1 34.028 44.7498 9.83734 21.859 264606 114809 529745 -514077 -82708.7 106511 
121 1 32.5318 47.2139 9.87212 27.6669 -130448 185286 1.05438e+06 -321464 39925 -45666.6 
51 1 35.664 45.5269 7.50311 0.577067 -787541 -813216 -104065 192481 -31115.1 -149732 
127 1 36.8714 44.7115 9.91873 0.268735 -125680 -565116 -200494 -42268.5 -206533 -141109 
124 1 35.2326 47.1277 9.8133 0.591221 -115717 -579901 233508 -116175 -142151 36053.6 
131 1 39.7594 44.7424 9.86656 0.0805665 259632 -108413 -56472.6 -38797.8 -115130 -264567 
128 1 38.2255 47.2476 9.84361 0.130097 378321 -27671.2 399627 95638.9 -43792.6 -285352 
135 1 42.6885 44.7784 9.91415 0.28104 -60988.1 177762 531044 42506.2 39187 -17586.3 
70 1 47.0232 45.7276 7.49497 6.93696 -382546 -453230 -540163 14464 -77181.2 -21237.1 
139 1 45.4568 44.8266 9.78122 0.158562 -697506 -588596 -292219 98820.9 -186732 -7436.91 
143 1 48.3496 44.8514 9.7384 0.153885 -187242 -159896 -158011 -63720.3 -121093 -37659.9 
48 1 34.1114 48.077 7.44656 0.298806 -1.09051e+06 -293691 -124924 -17538 57145.8 24267.2 
147 1 33.7289 49.5499 9.90486 6.0807 645507 274044 1.25753e+06 114745 177483 -104125 
148 1 36.6411 49.5858 9.83238 0.274797 706012 10644.3 365156 110046 -211272 -129803 
149 1 39.6003 49.7425 9.81323 0.242302 70868.5 -429346 103533 -55226.5 -129059 43103.1 
132 1 41.0674 47.2578 9.89748 0.263857 255181 -142027 207134 -176721 55803.3 -233126 
150 1 42.4598 49.6925 9.84259 0.125864 308374 157588 344387 -25698.6 -10213.9 -40437.8 
64 1 45.4065 48.0962 7.47709 6.94994 -359893 -431927 -171648 -72115.5 -49679.8 -92627.4 
136 1 44.0238 47.2525 9.91034 0.202022 11032.1 -116115 226821 115424 23362.4 -18192.2 
151 1 45.3858 49.8526 9.87268 0.473569 356699 -59496.5 472188 -87725.7 -109171 -187926 
140 1 46.8293 47.3406 9.75146 0.182004 -167358 -144012 -36375.2 20148 -176214 -213456 
144 1 49.7181 47.3855 9.64917 0.352938 55098.9 157090 539743 -111217 83413.4 -12084.7 
152 1 48.2512 49.8251 9.70296 0.366002 -70510.7 -314146 310799 -5403.23 -11431.2 -74953.9 
77 1 44.3099 34.2172 12.0848 37.3792 752420 -46070.5 1.29784e+06 -310374 -79002.2 -28456.2 
79 1 47.159 34.0921 12.3048 21.0979 1.57228e+06 221432 827542 -304029 -170971 -132636 
221 1 49.5037 48.8403 16.9863 7.9422 236359 399784 512346 120827 -33503.4 30867.7 
86 1 39.7546 36.5697 12.2268 29.2423 1.21259e+06 837915 1.73548e+06 -198866 14754.3 -128944 
90 1 42.651 36.3458 12.1899 8.6576 977186 442024 662304 772.333 -240257 -119731 
94 1 45.6312 36.5059 12.2026 7.54425 -312198 -1.38801e+06 -703955 -154989 -134067 -230117 
98 1 48.5039 36.4335 12.2086 7.58597 -111653 117664 91333.1 -247668 -146990 38581.5 
83 1 38.4145 38.9491 12.1408 12.0106 556233 755209 1.36112e+06 -631446 74149.1 98624.4 
108 1 39.7895 41.3194 12.3292 8.1425 759721 210057 902365 -21602.9 -71139.5 -178601 
85 1 41.2829 38.9153 12.2007 7.71702 254094 -14038.5 -161091 -11559.6 -227473 -419313 
89 1 44.1951 38.8759 12.2267 7.29207 -316366 -72475.2 -273893 218606 -131969 -27156 
93 1 46.9539 38.9738 12.1136 7.31624 -492346 -351035 -56174.8 -266404 -169290 -10617 
97 1 49.87 39.0022 12.1815 7.93977 -250340 -57979.1 -205486 29586.1 -149153 -34859 
104 1 36.8483 41.5133 12.1387 10.8532 503503 479001 1.37037e+06 -489759 -3346.82 -14285 
100 1 35.3361 43.7664 12.1755 12.6527 534318 655629 1.18351e+06 -144764 -14686.7 -103590 
103 1 38.257 43.808 12.2908 7.73553 86416 -213006 -245023 -370919 -390968 -155056 
112 1 42.6628 41.4292 12.1589 7.60717 210221 1251.12 353673 -291490 -23841.5 -173237 
107 1 41.1381 43.8884 12.2452 7.75429 18177.3 51046.5 291617 26172.4 -5637.12 28058.6 
116 1 45.5379 41.4578 12.0422 8.19685 -250716 -293319 279573 93447.7 -132278 10142.8 
111 1 44.0494 43.8346 12.24 7.27215 -260445 -397958 176548 -89787.7 -122740 -13629 
120 1 48.3501 41.4421 12.1553 7.67515 -271638 -170741 -230762 -117944 33037.1 120119 
115 1 46.8535 43.9555 12.1382 7.82818 -371864 -365538 -3963.97 -101994 -180665 -69047.3 
119 1 49.7254 43.9864 12.2166 7.54822 122697 -64291.5 167736 -48103.4 46154 28313.3 
126 1 33.7558 46.1976 12.199 12.2923 488261 604912 352787 -126222 145287 -248835 
130 1 36.6903 46.2997 12.2835 7.8195 696413 237113 123122 92244.4 30297.5 -273183 
134 1 39.6615 46.33 12.226 7.71489 107759 -471431 -232650 -240235 15307.4 75490.3 
138 1 42.5449 46.3396 12.2759 8.27003 -194491 -165834 -187100 -354791 -179257 -123346 
142 1 45.3953 46.3854 12.2274 7.81339 -503645 -550468 51297.7 -40783 -83310.5 -50476.7 
146 1 48.2219 46.451 12.1709 8.0715 -142838 -225667 511653 62458.7 -113045 34060.2 
122 1 32.5088 48.6887 12.2517 28.208 -223955 555958 757693 -124064 -2558.34 139754 
125 1 35.1628 48.7622 12.3279 7.77092 -722348 -379257 -156478 -20394 -201905 163478 
129 1 38.0377 48.8053 12.2314 6.88692 -338269 -34341.6 -160095 -2684.65 29717.6 -116584 
133 1 40.8756 48.807 12.1548 6.85713 -13314.8 -473519 -323942 -132911 67584.4 -299175 
137 1 43.8648 48.8264 12.304 7.86929 -41466.2 -423324 -302309 -102268 52417.3 -241609 
141 1 46.7223 48.8106 12.2644 7.19346 -446856 -534001 218187 -131306 -263662 -149558 
145 1 49.5414 48.9944 12.1603 7.23711 -243433 128134 521904 -64068.5 912.301 33711.2 
163 1 42.9813 34.9154 14.6084 25.4363 -89349.4 -360731 1.49451e+06 -503252 186672 -107580 
167 1 45.5393 34.8932 14.502 12.2611 -101701 -340861 827631 -56050.4 21221.8 -191992 
153 1 44.2463 33.9395 17.1509 17.3275 1.13872e+06 987098 2.05393e+06 -458484 20428.4 -527521 
217 1 46.7191 48.8113 17.0537 7.26331 -494058 -114376 -78489 106.107 -155508 -137917 
171 1 48.4794 34.8177 14.5899 10.4583 455803 143004 247941 -16320.2 -399383 128826 
155 1 47.0322 34.0794 16.9699 11.8338 1.20515e+06 432754 1.18274e+06 -292067 3855.2 -170488 
157 1 49.868 34.0249 16.8251 10.4648 473061 480049 381607 -135608 -398068 60297.9 
158 1 38.485 37.4513 14.5315 32.8603 187152 -40283 1.45329e+06 -556492 -77018.1 14767.7 
162 1 39.5717 36.5827 16.9734 27.1384 692252 182810 1.4394e+06 -527818 -154792 -107371 
160 1 41.1848 37.1391 14.5765 9.66221 72158.3 355581 908594 -11329 -83416 -27185.2 
166 1 42.4791 36.2509 16.946 9.60719 947246 678736 457147 -119744 -9790.93 -309752 
164 1 43.9851 37.2896 14.5354 7.67114 -676990 -1.39439e+06 -363420 -177946 -188699 157263 
170 1 45.3879 36.4406 16.8368 7.6239 314312 104478 189350 214627 96020 69606.9 
168 1 46.8832 37.3222 14.5771 7.57869 -4187.23 1481.83 -229219 -391755 -189852 -84426.8 
174 1 48.2739 36.5577 16.9235 7.01414 164674 -50388.9 321506 -96186.5 -54323.6 134782 
172 1 49.8082 37.3885 14.5611 7.80439 256963 -240209 83739.9 207515 -6387.36 -42307.3 
177 1 37.0189 39.8406 14.559 23.8951 444240 587914 1.58465e+06 -410207 -107860 -54438.1 
180 1 36.6263 41.2733 17.0513 11.4327 497790 792629 898657 -253185 -68434.6 -125492 
181 1 39.775 39.6619 14.7484 7.68485 -628612 -446637 352640 -207945 -215875 -156719 
159 1 38.0228 38.833 17.0428 10.8841 741593 662034 1.53838e+06 -243795 494.467 -113514 
185 1 42.5626 39.7066 14.5159 7.84305 -427552 -221149 279206 207575 -197008 -176321 
161 1 41.0788 38.6919 17.058 8.06177 411988 -481618 352480 -132706 -205434 46969.3 
189 1 45.4102 39.8459 14.5333 6.78827 -313120 -606043 7665.44 -35908.1 -243314 -330681 
165 1 43.9435 38.845 16.9398 7.65403 307927 88719.2 560775 250948 -32987.9 -115338 
193 1 48.3057 39.7951 14.4826 7.91452 -355429 -460848 -106243 22224.2 -19581.3 88430.7 
169 1 46.8658 38.9876 16.8886 7.55085 -353000 -609227 -39547 41759 -189045 -66125.7 
173 1 49.6759 39.0107 16.9226 7.46649 -484883 -134416 203955 -22658.9 -47788.1 -122840 
175 1 35.5639 42.1809 14.6739 22.0826 308359 500099 1.17369e+06 -453405 -72399.6 -37962.2 
176 1 35.148 43.793 16.9411 10.4278 476562 821088 1.1284e+06 -141841 138695 -56555.5 
184 1 39.5646 41.1617 17.0694 7.25556 858347 423887 342885 71224.6 -26215.4 -283893 
178 1 38.3031 42.2075 14.6835 6.91976 -54812.2 -703482 251979 -199823 58058 -76812.5 
179 1 38.0407 43.7042 17.0009 7.13222 755502 403372 355332 -43631.8 -47235.1 -236606 
182 1 41.2565 42.2333 14.6524 7.21354 -275856 -352426 29219.1 82728.9 -188211 -244731 
188 1 42.4877 41.2759 17.0126 7.42948 -131531 -55950.4 127110 28917.2 -222019 27712.3 
183 1 40.9678 43.7138 16.9232 7.33467 209362 290489 257404 250883 86450 -289660 
186 1 43.9969 42.2033 14.6381 7.61592 -890051 -573915 121322 268222 -269428 197715 
192 1 45.301 41.3445 16.9219 7.31014 -445586 -330879 -217220 147912 -160341 -74008.4 
187 1 43.7686 43.7974 17.0821 7.10301 -170267 -113491 -173693 113921 32064 -15135.4 
191 1 46.6778 43.8666 16.934 7.48682 -246597 -449971 275572 117723 -135027 84600 
190 1 46.8413 42.2407 14.5006 7.72131 -852044 -714959 135187 -52576.4 -23340.6 -40867.7 
194 1 49.6121 42.3314 14.5365 7.70523 -598351 -769392 -91441.4 -66547.7 -136063 51388.4 
196 1 48.1741 41.4443 16.9297 7.73024 -162944 -711737 245895 -197047 -67059.3 183567 
195 1 49.5058 43.8744 17.0232 6.84578 -248405 -489682 24592.7 176488 82472 20147.6 
199 1 33.9546 44.6325 14.5202 25.4669 382590 932496 956826 -360316 -65961.1 8163.24 
202 1 33.613 46.0706 16.9103 13.3519 594804 381770 1.17465e+06 263156 -19715.7 -292955 
197 1 32.5926 47.0742 14.4409 28.5673 -106772 684121 744286 56676 121222 -95395.8 
206 1 36.6099 46.296 16.9345 7.36861 350718 31531.2 168839 -17356.8 42781.7 -173029 
203 1 36.6897 44.6191 14.6282 8.06453 -362771 -625363 147878 -115613 38493.6 68877.2 
200 1 35.2572 47.124 14.5555 7.7092 -665344 -403144 -260213 -146369 -76848.2 170299 
207 1 39.585 44.6489 14.5196 8.15826 -146390 -744262 -377968 -328177 -241618 -201281 
210 1 39.4778 46.1647 16.9381 7.24621 121782 39447.9 224142 9188.03 -48139.4 53582.7 
211 1 42.5423 44.6867 14.6249 7.49921 -165281 -858983 -53790.1 -296269 -88740.4 -9037.13 
214 1 42.3875 46.33 16.9395 7.64941 76461.3 -19076.2 175451 307308 -137926 -79245.1 
208 1 40.9489 47.1085 14.6399 7.64157 -544620 -620208 -263331 28770.5 -220354 -160631 
215 1 45.3993 44.6907 14.6263 7.74173 -539756 -440125 24861.1 104429 -323254 -21995.5 
218 1 45.2902 46.3168 17.0094 7.99539 -438325 -288086 -90843.2 198324 6568.77 -38292 
219 1 48.1992 44.7273 14.5186 7.86077 -583751 -553663 5988.52 146191 11558.3 -170921 
222 1 48.0729 46.2808 16.9542 7.15743 -424326 -345043 282805 156839 -258806 38331.2 
198 1 32.4926 48.4815 16.8835 24.3811 -378860 247763 1.22576e+06 -102544 -6364.07 -48688.8 
223 1 33.6619 49.6838 14.6116 8.5169 448849 221886 86048.7 72219.2 93275.7 -54214.7 
224 1 36.7052 49.5058 14.5657 6.41232 -201243 -902813 -253144 70532.8 -52422.5 -229534 
201 1 35.1052 48.6899 16.9885 8.3931 -728409 -283036 253619 210498 -247125 -139141 
225 1 39.5782 49.5245 14.58 6.92185 -534065 -710935 23063.9 115660 -34030.9 -87904.4 
204 1 38.1215 47.1169 14.596 7.42455 -805324 -867599 -314939 81481.9 -105821 -55604 
205 1 38.0233 48.6567 16.9734 7.75461 24296.4 -420618 22971.3 -281540 -126513 -107999 
226 1 42.4301 49.5798 14.538 7.51462 -771953 -137174 185051 116717 124840 -106038 
209 1 40.9333 48.6594 16.9824 7.70522 145085 -352140 30720.7 143943 -243898 -269944 
212 1 43.8763 47.1131 14.5913 7.3792 -420249 -951050 -466946 -239689 -156275 -15940.5 
216 1 46.7616 47.1914 14.6534 7.48922 -235361 -526819 -110257 -70478.2 -169467 156440 
227 1 45.1829 49.6092 14.6557 7.49964 -1.02888e+06 -579934 -324868 -347244 103526 59851.9 
213 1 43.8854 48.7922 16.9579 6.95159 -309145 -438897 -487526 -253546 35530.5 -45676.7 
232 1 47.074 32.5721 19.1939 32.713 778393 -51299.1 615737 -66677.9 129395 -6224.63 
239 1 42.6589 34.6482 19.3842 19.5714 903992 583763 1.27256e+06 -337803 -81200 16173.9 
230 1 44.4131 32.5303 19.54 54.1403 784479 202408 793931 -156510 180486 -250785 
243 1 45.5505 34.8986 19.441 6.54254 -182782 -1.33176e+06 -131525 5939.55 -187817 -184896 
247 1 48.4291 34.9437 19.3506 6.39633 -519060 -1.01321e+06 234323 -173633 -53906.5 -164608 
3049 1 49.636 32.5546 19.171 43.5365 638854 297421 1.06634e+06 86114.3 103.102 -6455.19 
234 1 38.3603 37.1397 19.4139 32.7039 286583 190549 1.11573e+06 -498722 -58642.5 -104404 
236 1 41.0731 36.9405 19.3205 8.35391 -25942.1 304787 434212 97344.3 -27781.5 89495.9 
240 1 43.8672 37.1166 19.3066 8.03216 7668.99 145847 902457 214605 -71642.9 69571.7 
244 1 46.8215 37.3894 19.2979 7.22854 627659 -516124 738519 -67799.5 85950.1 25803.9 
248 1 49.8373 37.2868 19.3496 6.52017 -165323 -384430 96616.4 -293591 49199.5 -196064 
253 1 36.7855 39.5775 19.4186 25.6599 538445 926961 928838 -494481 35477.6 -132987 
257 1 39.5769 39.44 19.4738 7.31479 -173444 -189030 87757.4 -235963 -89654.9 104995 
261 1 42.4789 39.5856 19.4223 8.12154 87287 317522 380063 129283 -150027 14496.1 
265 1 45.3139 39.7147 19.3689 7.8358 -212880 -431252 476128 259129 -122136 -45220.3 
269 1 48.1811 39.8053 19.2666 7.92335 -49598.3 -236496 172133 -185931 -37631.8 -98387.1 
251 1 35.358 42.0688 19.3009 23.6722 115561 503228 739160 -233347 174477 -257906 
254 1 38.1046 41.9832 19.4298 7.27791 -265887 -177923 -49569.2 3002.82 25093.8 -305655 
258 1 40.9918 42.0578 19.4226 8.14796 100410 177389 500125 117598 -141853 -141957 
262 1 43.8428 42.1008 19.3425 7.60603 -506435 -444109 -32242.2 240410 -158053 33397.2 
266 1 46.6532 42.1616 19.3942 7.51411 -274836 -317860 146922 3504.81 -53086.1 -22997.2 
270 1 49.5932 42.2976 19.3646 7.78297 162285 -438429 34436.6 273290 -132564 309124 
275 1 33.8347 44.3345 19.3129 27.6409 573151 1.07329e+06 998331 -239689 67779.8 -113197 
273 1 32.4792 46.9215 19.2419 34.8382 -182896 1.03393e+06 1.29849e+06 -135913 136694 -151380 
279 1 36.6536 44.4758 19.4501 7.5661 57941.8 -370588 39859.8 96409.3 -129148 -186792 
276 1 35.0712 46.8793 19.2872 7.95278 -536837 380806 377748 -122447 0.300825 16401.6 
283 1 39.5414 44.5145 19.3598 7.25449 -16325.8 -77527.9 207739 -90933.4 -197634 29696 
280 1 37.9769 47.0319 19.3839 7.41824 -72226.9 -207498 -99343.7 -68792 -128889 61789.6 
287 1 42.4073 44.5249 19.3813 7.26284 -298062 -40836 -62466.3 160255 263603 -219032 
291 1 45.2654 44.6607 19.3725 7.91202 112596 -182194 258251 112925 -268486 3837.7 
288 1 43.7839 47.1087 19.3533 7.71622 -89378 -339432 145362 12908.7 40229.7 -194981 
295 1 48.2107 44.6389 19.4108 7.11683 28246.5 -69335.7 -19876.2 244391 283095 47616 
299 1 33.5044 49.4907 19.3834 9.1924 452934 662014 175450 -93856.9 -28074.3 245694 
300 1 36.4415 49.4013 19.3488 8.02002 381563 -276526 69034.7 204112 -101526 -16925.3 
301 1 39.3869 49.4717 19.3619 7.92906 323156 94032.2 480411 -157977 -145972 -45637.5 
284 1 40.8236 46.9748 19.4033 7.62905 123698 29679.3 322806 -205531 53481.2 103559 
302 1 42.2551 49.4875 19.3112 7.65565 -79943 172683 389107 145766 -164632 -35840.6 
303 1 45.082 49.5827 19.357 6.88687 -623339 -858659 -532487 -125251 -124013 -35716.5 
292 1 46.5807 47.1597 19.4165 7.07808 -217905 -254492 91212.4 -254274 -168903 -37052.4 
304 1 47.9817 49.6114 19.3857 7.54404 -259690 -269889 130369 20505.3 -179953 -242809 
296 1 49.4876 47.2111 19.3455 7.5323 202728 -73427 -33118.3 128041 99624 -28275.2 
308 1 46.7592 32.3417 23.9882 37.8737 666051 -25415.8 824329 130340 19246.2 16851 
315 1 42.669 34.6622 24.22 17.9763 524854 530015 1.23525e+06 -341463 11529.6 -90562.6 
306 1 44.1775 32.4292 24.0198 59.0015 360224 86693.7 1.13619e+06 -224093 -45877.4 173876 
229 1 43.9697 33.8636 21.7313 14.8069 748137 507469 911432 -220561 -6402.76 -172916 
319 1 45.44 34.6894 24.1252 7.34222 -738874 -1.06569e+06 370940 -82438.3 -64291.7 -138754 
231 1 46.8543 33.8318 21.6725 9.21093 1.14852e+06 570579 939681 141177 -119205 178929 
323 1 48.2187 34.7231 24.1126 7.22624 -756395 -862532 499564 397226 10135.1 -32428.8 
233 1 49.6448 33.7655 21.6858 9.66809 794432 643596 1.40115e+06 84577.2 -119578 52766.2 
3122 1 49.4135 32.4883 24.1395 43.7094 605051 -570707 1.0029e+06 209114 4714.27 -29398 
238 1 39.5618 36.4788 21.7473 25.4698 304277 -381566 1.20787e+06 -455437 -339016 71051.9 
310 1 38.1341 37.1722 24.1967 33.6324 938893 578975 1.68603e+06 -479939 33658.9 -70637.9 
242 1 42.4091 36.2557 21.7529 9.3103 733997 596732 1.05752e+06 -69121.4 -95912.5 -60447.7 
312 1 40.929 36.9187 24.1383 9.34064 828783 260812 424593 -36864.2 -108531 -171538 
246 1 45.34 36.3567 21.75 7.56822 562853 470843 203093 100150 74155.6 -313487 
316 1 43.8625 37.1376 24.1168 7.68692 319327 -340397 361764 66113.5 3725.53 -83664 
250 1 48.17 36.3871 21.7109 7.0889 76455.7 719359 499578 -65163.9 47031.7 -136318 
320 1 46.7573 37.2558 24.1835 6.98104 299774 -115137 653171 40592.5 -41264.3 -183071 
324 1 49.6353 37.2442 24.2112 7.17694 -360610 -145372 -113859 44358.7 -190805 -134209 
256 1 36.5595 41.1367 21.7266 12.3501 433835 408926 1.02027e+06 -432145 12769.4 -40223.5 
235 1 38.0531 38.666 21.763 12.353 48577.5 214545 951554 -156894 -31854.6 -21097.3 
260 1 39.4842 41.1008 21.8327 8.10235 379849 -5728.08 185848 345654 19352.3 4126.43 
237 1 40.9332 38.6624 21.7696 8.08132 -498758 -863134 -114523 -105639 -183955 67141.4 
337 1 42.3527 39.4955 24.1289 7.9823 -305416 -67690.3 -48329.1 198357 103045 -105091 
264 1 42.3484 41.2633 21.7932 7.3019 218813 54750.8 225358 -33951.9 -78753.5 -19793.3 
241 1 43.7973 38.7982 21.7893 7.6606 187403 453401 209340 231581 -87371.1 134511 
341 1 45.2686 39.6368 24.134 7.90463 1003.28 -505396 303811 170154 79513.7 37926.3 
245 1 46.7182 38.9337 21.7383 7.51998 345320 36350.1 396140 159549 -87119 -131436 
345 1 48.1822 39.7094 24.1073 7.77903 -24259.6 -684136 120874 157673 -197179 -221771 
249 1 49.648 38.8652 21.6651 7.51032 520968 399771 635765 -50986 42268.4 -201148 
252 1 35.0495 43.5273 21.6939 12.7677 366540 414887 984996 -2623.37 33221.6 25206 
255 1 37.9374 43.518 21.6949 7.01979 346122 -213990 -373442 230963 -157288 -131207 
259 1 40.8631 43.7621 21.7065 6.82538 -105429 -12103.5 -69179.2 69207.4 -44550.6 -120525 
268 1 45.3271 41.3388 21.7642 6.92528 -238324 -107391 -272377 204255 -99900.6 -52401.6 
263 1 43.7252 43.6812 21.7825 7.98123 296013 -112527 383282 131862 -150058 -41517.1 
338 1 43.799 41.982 24.1799 7.29293 -182234 -205213 164811 204298 2960.08 27955.1 
272 1 48.1531 41.3871 21.6968 7.767 -742011 -196238 -319588 7348.72 147464 -62139.8 
267 1 46.7403 43.8965 21.6875 7.05234 -189133 -298517 1190.01 84710.5 -38412.2 34409.5 
271 1 49.5446 43.9111 21.8216 7.59082 -481420 -410943 -329651 -9194.45 -288709 -82172.6 
278 1 33.6871 45.907 21.6852 11.6215 284654 507312 1.4531e+06 -95167 -23627.9 44525.3 
349 1 32.4282 46.8891 24.1137 32.0508 266956 618695 1.389e+06 -233704 -72724.3 -64839.4 
282 1 36.5016 46.0467 21.6974 7.40663 -23084.8 -46080.4 -121523 92190.5 249078 -244882 
286 1 39.3613 46.1771 21.6965 7.28161 -71035.8 -78063.2 -45270.6 277026 -23803.8 38790.9 
290 1 42.2938 46.1374 21.7208 8.01593 282058 -117797 377594 -176435 -23088.5 -174727 
294 1 45.2131 46.2254 21.8266 7.69274 -168390 -409970 -134315 265913 20912.1 -68490.2 
367 1 45.1659 44.5329 24.1216 7.87141 343937 122017 425703 21275.1 -129585 219989 
298 1 48.0882 46.3935 21.7686 7.60061 -380533 -445278 117042 -154079 -61634 -109941 
274 1 32.3893 48.3247 21.6591 27.8826 -253016 1.02048e+06 1.36984e+06 -62019.2 9208.57 8275.68 
277 1 34.9859 48.5299 21.6743 8.04887 -717476 -12239.3 286038 152441 25981.7 123800 
281 1 37.8499 48.5425 21.7645 7.26586 34869.4 -244238 171920 126661 41274.6 -186757 
285 1 40.7536 48.6601 21.7888 7.79691 338560 -122710 421630 -56124.6 -24613.4 -46972 
289 1 43.7383 48.598 21.7341 7.12504 113114 -437520 378288 -36888.3 120654 -90479.8 
293 1 46.5539 48.7749 21.773 7.79207 -284408 -439178 124554 115689 -121380 -84660.1 
297 1 49.4937 48.8007 21.7353 7.04248 -518418 -794748 -186058 -220761 -67018.2 -131155 
305 1 43.951 33.7678 26.5519 14.6229 905363 895568 1.99082e+06 -484892 -23661.2 -108504 
307 1 46.8395 33.672 26.4758 8.79553 1.34411e+06 576904 919108 -21998.6 -73994.9 286515 
309 1 49.6847 33.7693 26.5544 11.1988 440526 412557 741612 92935.5 76712.5 -166935 
314 1 39.5071 36.3544 26.5928 25.3804 403945 220763 1.09589e+06 -658760 31277.5 -89658.3 
318 1 42.3294 36.2019 26.5328 8.70494 298978 451992 227328 -29567.9 84225.4 -351561 
322 1 45.2614 36.1922 26.566 7.2004 254946 -47903 -88421.7 64190.1 115471 -104019 
326 1 48.1345 36.2354 26.5853 7.44771 107552 536862 235224 111478 -1960.62 -162792 
329 1 36.6447 39.6114 24.1381 17.9727 753317 730887 1.18224e+06 -547421 -42862.1 -2454.49 
332 1 36.4106 41.132 26.4892 11.2209 938345 1.06638e+06 1.3611e+06 -137237 -995.231 -74673.9 
333 1 39.5265 39.4465 24.1463 7.4789 -238230 -327581 -389328 -2817.83 -161658 16974.8 
311 1 37.8761 38.6532 26.5041 11.3316 834871 1.10788e+06 1.36129e+06 -317659 43046.6 -176637 
336 1 39.4323 41.0848 26.4211 8.07162 924946 276456 247318 -60647.5 -123728 -105624 
313 1 40.8713 38.5752 26.4282 7.68385 255902 -743638 -282919 -22953.9 -142287 47940.8 
317 1 43.8634 38.672 26.4985 7.31468 -32478.1 -80344.6 -115632 178394 84717.8 -59589.1 
321 1 46.6721 38.699 26.5643 7.51979 111615 92819.3 180990 -28636.5 -167215 -138007 
344 1 45.2163 41.2438 26.5694 7.50245 -95698.2 -11321.4 40000.2 -89533 -289334 -143791 
325 1 49.6054 38.8091 26.4654 8.22126 -21253.9 -55686.4 96579.1 261318 -38102.6 -344844 
327 1 35.2351 42.0207 24.1017 25.5876 299462 531205 1.03294e+06 -244891 -46693.6 31491.8 
328 1 35.0436 43.5813 26.5059 11.5774 309788 502231 1.1584e+06 -189078 -75325.9 -56777.4 
330 1 38.0111 41.9273 24.1333 7.85967 -30920.6 -246593 331093 44500.4 -82521.5 84919 
331 1 37.9228 43.6635 26.5572 7.40089 -36827.5 352668 407784 416102 50698.5 -12747 
334 1 40.9746 42.0059 24.187 7.28486 -154571 -387732 177391 -145292 118838 -114587 
340 1 42.379 41.0999 26.5303 7.74635 73333.8 213111 -148667 -8489.16 51646.1 -24256.6 
335 1 40.7043 43.5733 26.5724 6.79305 171882 30919.1 236092 -83225.8 -55003 -68690.2 
339 1 43.7242 43.6684 26.536 7.73797 272406 -9602.3 79359 201086 -881.361 -171036 
343 1 46.6036 43.6752 26.4376 8.15564 -220087 107784 218391 -303655 -82032 96250.7 
342 1 46.76 42.069 24.0013 7.73209 -315468 -368380 -106031 74880.2 -166929 -240055 
348 1 48.1413 41.1843 26.4289 7.71728 64213.8 -240481 109007 1319.46 39698.2 -254991 
346 1 49.5861 42.1852 24.1163 7.4213 -767715 -477024 -90174.5 -34540.4 -17777 104770 
347 1 49.3993 43.7307 26.6075 7.78357 -439717 -474728 -249454 241711 -162286 51675.3 
351 1 33.8452 44.4188 24.1101 17.4289 331177 753340 927056 -286361 -18714.7 27645.3 
354 1 33.5365 45.9238 26.4932 13.1145 546047 533159 1.06765e+06 132504 -58202 -163194 
355 1 36.6033 44.4051 24.1003 7.02418 -402577 -279059 267803 167756 45582.1 -106585 
352 1 35.1338 46.8793 24.0506 7.00891 -152955 -85870.4 304408 -124742 -81582 -125387 
358 1 36.4935 45.9942 26.4499 7.62351 199865 -711632 -37524.5 480504 133932 -62677.8 
359 1 39.4321 44.4622 24.0825 7.31106 -244217 18811.5 489419 -52704.6 19833.6 -132742 
356 1 37.9952 46.9613 24.1923 7.73221 -378569 -354404 -159977 136149 -48247.9 72059.1 