ITEM: TIMESTEP
60000
ITEM: NUMBER OF ATOMS
5538
ITEM: BOX BOUNDS pp pp pp
0.382303 99.6177
-0.0776302 100.078
4.07413 95.9259
ITEM: ATOMS id type x y z c_csym c_2[1] c_2[2] c_2[3] c_2[4] c_2[5] c_2[6] 
5 1 49.9514 34.11 4.53322 28.7925 744491 368703 498399 -60374.9 161121 -141035 
4 1 48.7658 33.402 6.81363 45.5272 346002 187312 346591 -150736 51743.2 -152910 
8 1 39.8776 37.9609 6.95677 13.4256 810013 268109 304053 -183542 87139.4 212365 
1 1 42.6331 36.2862 4.58778 22.1283 1.19956e+06 845204 1.65735e+06 -322792 54839 -193054 
12 1 42.8013 37.9358 6.91984 0.290744 -466746 -434247 -179364 -198810 59761.1 174461 
11 1 41.3924 35.676 6.99955 38.8996 507302 152387 931380 -254187 -19506.7 -202461 
3 1 45.4252 36.2425 4.64228 12.6383 1.03375e+06 639113 871921 -73600.1 -1599.73 3043.1 
16 1 45.6325 37.9248 6.8691 0.270297 -74669 120988 -121449 -17593.8 261478 71284.8 
15 1 44.0961 35.4499 6.92868 22.3093 461851 37447.5 14453.2 -23922.4 372376 -21438.5 
19 1 48.3325 36.401 4.54632 6.28236 985069 849183 544225 30007 -120616 149126 
2 1 47.0432 35.4947 6.92931 6.51172 1.00098e+06 268263 330310 40633.4 -11023.1 42691.5 
28 1 34.1352 41.4858 4.82744 30.2702 464616 995852 642632 -682675 58515.5 -161726 
7 1 35.6113 38.9653 4.93668 39.97 480031 507167 690295 -380332 55614.9 -127596 
10 1 38.2862 38.7525 4.70815 6.02367 379338 527471 638727 -96831.6 9968.55 -150684 
29 1 38.3783 40.3948 6.97884 0.49963 428736 -188596 103392 -144841 -194910 -162671 
14 1 41.0912 38.7524 4.59373 6.32046 787645 1.12998e+06 659846 -258368 197410 72513.4 
33 1 41.3538 40.4068 6.93387 0.550835 264349 398507 69580.5 -120505 197951 113031 
18 1 44.0287 38.7472 4.49418 0.522249 230790 564646 -340507 -83122.1 276267 163347 
22 1 46.8716 38.9117 4.56376 0.350785 182422 464074 -244932 -17619.1 -18562.9 5906.41 
37 1 44.2118 40.4739 6.92358 0.279322 -496791 78037.2 -269565 -157141 188340 146960 
21 1 49.823 38.9886 4.63596 0.210952 -64990.3 -247675 -372309 293250 239286 53953.8 
41 1 46.9767 40.513 7.00411 0.417386 -30962.8 281495 -36971.4 -75221.7 115005 205587 
194 1 49.9065 42.2323 13.9825 7.29334 -401614 136403 72609.6 50526.5 49152.2 65044.7 
24 1 32.6245 43.9919 4.7951 29.9456 298057 792281 539546 -246910 88493 63573.8 
32 1 36.8632 41.3253 4.67628 0.413894 -300006 -166068 -300623 -282455 178876 -103137 
27 1 35.3987 43.8565 4.59101 0.728892 -823003 -574410 -789242 -259230 161984 -38179.6 
26 1 36.7989 42.9111 6.98257 0.346194 52574.8 -363164 -428283 -90593.2 -100274 19040 
9 1 39.7436 41.3958 4.55602 0.441181 156606 551606 -412227 -171949 296762 -330945 
31 1 38.2135 43.9555 4.69832 0.447741 -163188 -204163 -453592 153533 -205547 38598.9 
30 1 39.7124 42.9746 6.88808 0.268096 393237 459902 -238372 -172507 124263 56226 
13 1 42.5876 41.3153 4.62917 0.173996 89471 552369 -261966 68750.4 73965.7 -110018 
36 1 41.2235 43.8845 4.72045 0.420308 78062.5 32554.3 -424747 -136054 193828 -12855.6 
34 1 42.6956 42.9691 6.92478 0.174853 325851 270418 -462485 70809.6 -217797 200878 
40 1 44.0751 43.985 4.60795 0.164159 -222698 -43850.5 -556621 504421 -28371.6 -2837.84 
17 1 45.439 41.4668 4.68848 0.560282 117434 171191 -547552 -2146.88 157720 77384.1 
39 1 46.9419 43.9462 4.57469 6.86467 299768 377453 -334743 -300086 129865 14616 
44 1 48.3772 41.322 4.61399 0.676665 264987 219268 149140 171807 18024.4 -41329.2 
43 1 49.7963 44.1175 4.70998 6.89391 499155 610845 53017.8 -45608.2 164745 -84149.5 
67 1 48.4449 43.0467 6.961 0.290046 92669.3 254008 -2738.53 -42611.4 117310 178204 
50 1 31.2996 46.2846 4.9553 34.8584 116039 569888 466031 142722 -38887.2 67411.4 
54 1 34.0096 46.413 4.69665 1.01456 -815058 -371998 -779976 -317285 -175100 174573 
58 1 36.8871 46.3965 4.75856 0.48491 -713874 -848644 -637559 133801 -89098.5 63061.3 
62 1 39.7417 46.4166 4.69812 0.203451 -222244 -259704 -365221 -210398 139181 163108 
55 1 38.2165 45.4962 7.02175 0.14068 43367.9 -61137.2 -889983 104078 -284984 -77506.5 
35 1 42.7031 46.3929 4.53797 0.702873 62109.2 -846739 -877471 -51995.8 -115737 -154810 
59 1 41.1922 45.5023 6.94972 0.0747168 486760 15754.1 -583264 -19831.3 -166706 -303345 
1438 1 45.6459 46.5707 4.61815 18.7286 1.09848e+06 1.08328e+06 533479 73571.4 -59320.3 -140484 
63 1 44.2007 45.5698 6.85716 0.364964 51303.9 25409.8 -151518 179847 -333128 -110343 
68 1 49.8764 45.6229 6.98644 7.33839 -93186.3 -116272 -495368 -129481 238263 -12272.7 
70 1 47.0081 45.5695 6.88442 7.06594 -74887 22757.6 -24209.3 -65475.5 34560 82400 
46 1 32.3432 48.894 4.73329 11.1666 197431 431068 357906 -342445 187499 43330.8 
48 1 33.8631 47.9391 7.05761 0.230792 -807177 -305842 -367136 967.579 20436.2 -201248 
49 1 35.3587 48.8494 4.74119 0.242477 -502176 -1.30686e+06 -895701 -60844.1 193126 37876.9 
52 1 36.785 48.0107 7.05038 0.156545 15803.1 29056.4 -391561 162320 -150764 -43997.8 
53 1 38.2092 48.8679 4.69444 0.105918 -641368 -469190 -249808 -67434.5 32549.1 -20891.7 
56 1 39.6859 48.0177 7.06283 0.130608 50429 184395 -575671 -19148.2 84448 22596 
57 1 41.0446 48.8966 4.70593 0.279044 -237503 -192825 -128928 -214132 98026.3 88605 
66 1 43.9826 48.8756 4.77147 6.90127 -261767 -569853 -866862 -151966 229898 57904.8 
64 1 45.5834 48.0568 6.92479 6.93645 107652 -130405 -140302 19468 -237129 -284359 
65 1 48.4099 48.0675 6.93219 20.0298 805661 973834 893208 -221.776 68192.3 5989.48 
87 1 42.8635 34.8088 9.14687 35.0195 430681 82021.9 360387 -394476 577534 -337131 
91 1 45.6388 34.7596 9.1772 20.9871 655069 -99849.5 256707 2303.92 52274.6 -47338 
95 1 48.6161 34.7008 9.11761 11.7355 860448 -120964 155992 -126614 -227643 -88467.5 
6 1 36.9643 38.1492 7.0823 37.3389 793531 403299 1.05562e+06 -409653 268127 40662 
82 1 38.567 37.447 9.27988 28.9675 627232 162685 834280 -605245 398301 -211999 
84 1 41.3984 37.2336 9.29354 6.91091 -153289 -188766 -590197 -224487 -96387.7 49711.7 
88 1 44.2611 37.1478 9.21415 0.177608 -552613 -574441 -665224 -95480.8 84739 154097 
78 1 48.5542 38.0714 6.88319 0.176983 226842 83413.3 -85814.4 265244 347773 5590.65 
92 1 47.1849 37.1616 9.22703 0.152439 -390594 185864 -221856 77219.2 -36736.7 42372.4 
221 1 49.8959 48.9262 16.4235 7.83103 -93767.8 287590 34374.9 -84503.3 192471 4841.59 
25 1 35.47 40.5609 7.05092 21.721 507386 230153 491472 -612067 271248 -79948.8 
101 1 36.9574 39.7856 9.46626 19.8086 559397 589385 893082 -426345 145856 28657.9 
105 1 39.8304 39.7645 9.32275 0.339996 -96997 -410391 -111712 -344802 -59478 115990 
109 1 42.7439 39.6919 9.28199 0.129003 213968 20547.3 -102063 -231705 94765.9 57117.2 
113 1 45.6993 39.646 9.26069 0.139982 409673 355446 -372702 -42083.5 82382 235106 
117 1 48.6575 39.7195 9.2071 0.481897 -68578.9 357520 -288916 -48441.7 -66208.8 -15595 
23 1 33.9148 43.0223 6.985 20.5686 350248 179913 348735 -364657 120040 -199729 
99 1 35.3866 42.1861 9.35817 21.9384 589875 645447 660523 -276346 259242 -122143 
102 1 38.2503 42.1961 9.22651 0.407428 362778 -171768 -86589.1 -11141.3 -66426.2 -74122.6 
106 1 41.2413 42.209 9.23332 0.158068 425861 47590.3 136108 -182344 49213.9 -149128 
38 1 45.6306 43.0748 6.92537 0.195054 -206394 -398940 -591284 -89572.7 143994 -281969 
110 1 44.1375 42.181 9.15866 0.29539 501554 363778 -222194 -139506 -7847.83 66503 
114 1 47.1416 42.2906 9.32059 0.476085 206180 352097 -231501 -76917.6 60829.7 65871.8 
118 1 49.9611 42.3825 9.29822 0.253156 -324924 -213021 -106279 -33403.1 96738.3 -36999.1 
47 1 32.504 45.4764 7.18046 20.9328 -139121 182415 10908.7 15096.2 -351651 310375 
123 1 33.9302 44.6264 9.26811 20.277 169468 671946 127576 -305983 -54028.7 235658 
121 1 32.3878 47.0753 9.4554 29.1489 602945 894422 1.197e+06 -115544 144403 -22189.9 
51 1 35.3102 45.3899 6.93854 0.595226 -233125 -218317 -535473 54940.1 20439.5 184697 
127 1 36.7573 44.6699 9.32419 0.213687 131871 -4594.15 -456496 41896.5 60424.4 -216809 
124 1 35.2058 47.1474 9.38145 0.271148 319805 -166676 -288611 -172031 -120163 178879 
131 1 39.7064 44.6849 9.23854 0.126928 234380 3797.37 -347629 -30139.7 -150788 -178115 
128 1 38.2333 47.2075 9.31468 0.349091 365866 -69310.5 -549150 -115919 -58965 -58148.3 
135 1 42.6521 44.7329 9.25265 0.174588 125599 -66628 -115353 -26419.7 -26130.4 177080 
139 1 45.5868 44.7738 9.16448 0.310947 9144.3 44130.2 -463958 55771.7 45709.7 -83460.5 
143 1 48.4648 44.8181 9.26819 0.132943 -499960 -952501 -425627 -185365 127289 -40872.2 
45 1 31.2516 47.9501 7.03018 43.9884 -159460 636311 693780 54877.1 258033 95632 
147 1 33.6532 49.5938 9.3577 11.5032 456047 704771 634234 259368 82289 -342298 
148 1 36.4963 49.6138 9.46515 0.906942 475682 -155602 -141801 -97787.2 -145652 -44953.3 
149 1 39.5793 49.6499 9.38515 0.12157 695530 186724 127587 -167426 29220.7 32073.3 
60 1 42.6336 47.9751 6.92892 0.280185 237161 216446 -302952 -238429 437629 262237 
132 1 41.2123 47.1477 9.22158 0.449388 -53561.9 -252182 -380407 -30433.9 -68651.8 3284.68 
150 1 42.5556 49.6602 9.41784 0.142444 -127828 -167973 -410866 -71846 -94650.4 135900 
136 1 44.0808 47.1935 9.38177 0.313179 -126310 -432435 131475 -136008 -53646.8 -2456.06 
151 1 45.4243 49.6164 9.31966 0.259066 -455896 -629639 -508272 -14566.5 -92815.9 196923 
140 1 47.0275 47.2745 9.25708 0.306631 -821895 -646231 -314019 151393 -208734 54516.1 
144 1 49.7754 47.235 9.41451 0.343916 -794524 -526772 -256550 -190090 254683 115921 
152 1 48.3764 49.7433 9.28021 0.374084 -269900 -488705 -181955 17103.6 -172290 152344 
77 1 44.4129 33.9417 11.4798 28.1919 428011 256982 776109 -268659 353507 -120671 
79 1 47.1721 33.9356 11.3917 21.6089 798223 171368 564028 -8936.31 264210 -129725 
86 1 39.9393 36.6033 11.5838 25.3147 78958.7 -168550 546350 -423442 165480 -42680 
90 1 42.809 36.2536 11.4462 9.44687 112586 144600 -636774 -170826 -88339.7 83903.9 
94 1 45.7391 36.3178 11.5668 7.51896 -778383 -845623 -1.05355e+06 82580.2 -35029.8 -185714 
98 1 48.603 36.331 11.5295 7.82665 -725859 -388283 -1.10439e+06 -53829.3 308525 214683 
83 1 38.4329 38.8563 11.6483 12.4624 -121329 2802.1 -413686 -84022.3 127192 -100241 
85 1 41.3449 38.8285 11.5966 7.83029 -161358 -384046 -730404 -292589 113709 -324481 
89 1 44.2751 38.764 11.6233 8.31512 -221215 -160000 -603268 7512.2 22613 42595.2 
220 1 49.9036 47.3208 14.0217 7.81115 -199754 -60360.5 150804 99239.5 230547 -23008.4 
93 1 47.1159 38.8889 11.5701 7.68279 -511369 -318585 -370698 1697.93 -33180.2 109913 
104 1 36.8426 41.3415 11.6815 11.4005 382161 204984 257456 -361155 155785 -324433 
100 1 35.3106 43.7262 11.6075 12.4643 357255 317477 536359 -325290 54964.4 -188986 
108 1 39.8045 41.3438 11.7063 7.85771 544315 -3238.69 -294784 197054 144203 -264109 
103 1 38.2404 43.7125 11.6362 7.43431 541838 -481503 -176033 153547 42245.9 -38814.6 
112 1 42.7849 41.3979 11.5736 7.70083 80823.6 170130 -43573.9 -51150.8 75626.5 -210808 
107 1 41.3288 43.8245 11.4955 8.25881 266264 -87168.5 -100635 -2361.82 130580 -37395.6 
116 1 45.6155 41.3148 11.5689 8.19399 -28522.1 39783.4 -114312 101829 115544 -60960.5 
111 1 44.1782 43.8738 11.5234 8.36833 -235290 13224 185315 -293571 18965.1 -45198.9 
120 1 48.5322 41.3304 11.5482 7.3165 358787 74079.2 -161761 -20069.1 39424.3 -1660.57 
115 1 47.0139 43.9468 11.6029 7.63507 -232907 -219621 -210706 -2473.56 109342 -44964.4 
119 1 49.9081 43.9288 11.6308 7.87287 290827 405423 -147853 22509.1 242433 -81114.1 
126 1 33.8847 46.2301 11.6654 12.9454 33000.7 334351 725790 -410858 161710 75370.6 
130 1 36.7253 46.1473 11.6249 7.43092 338058 -288158 -240576 53877.5 -76907.5 -147511 
134 1 39.7031 46.1989 11.5216 7.49858 511144 168716 -43352.6 -9057.92 11519.4 -130663 
138 1 42.616 46.3954 11.6699 7.32968 -108593 -216624 -451086 -85134.9 230427 66227.9 
142 1 45.5456 46.3127 11.6188 7.84217 -502825 -547604 -178383 -55389 -243343 990.074 
146 1 48.3462 46.4266 11.6106 6.78799 -630620 -365866 -890050 2227.81 423351 47674.5 
122 1 32.4402 48.5727 11.759 32.29 355651 867724 1.16158e+06 45867.9 -137409 -70660.2 
125 1 35.2011 48.6803 11.7792 7.75251 -491448 -524739 -783434 2118.5 253863 -85359.3 
129 1 38.0601 48.686 11.6809 6.91656 43683.4 172412 -465850 151198 -114109 -208222 
133 1 41.0352 48.7534 11.6635 7.30713 314978 172364 -315170 178297 211977 54162.3 
137 1 44.0023 48.8567 11.6832 7.40414 -49276.4 -184046 -402124 -196823 25018.6 45680 
141 1 46.8667 48.8432 11.6676 7.17813 -80569.8 -325990 -51760.4 27138.3 -73979.5 -39803.6 
145 1 49.7851 48.9859 11.7585 7.50245 163658 -50370.3 -20628.6 213020 188763 42601.5 
163 1 43.1699 34.645 13.7045 25.2236 770893 90864.2 1.08798e+06 -305983 175135 -83522.5 
167 1 45.9637 34.5543 13.7624 10.952 186424 39778.9 175799 4169.1 -23346.9 115708 
153 1 44.5548 33.7944 16.1176 18.2078 524714 530485 1.13323e+06 -308734 398601 -382761 
171 1 48.7223 34.61 13.7685 10.2021 -48435.3 45462.1 183624 4633.19 219628 -3807.98 
155 1 47.3375 33.8028 16.0794 11.6916 812756 321745 300554 -62613.5 45178.5 -104471 
158 1 38.7577 37.2541 13.9031 23.1498 211087 -148568 565829 -229805 136211 -96981.2 
162 1 40.0455 36.4257 16.2399 25.6479 811434 503190 1.38259e+06 -318304 -108470 48388.8 
160 1 41.4893 36.9466 13.8612 8.93296 -35672.6 472909 204088 -89160.2 -182318 31696.9 
166 1 42.9127 36.1414 16.1561 9.33062 286939 570485 212884 -247487 -87963 166261 
164 1 44.3074 37.0583 13.8074 8.0358 -714818 -432002 -958463 -148761 35501 289025 
170 1 45.7216 36.2994 16.0689 6.69087 -117653 -95677 -502530 60272.9 18892.5 217221 
168 1 47.1969 37.1265 13.7864 8.18706 -246149 -19546 -806522 -150171 32756.6 -93665.3 
174 1 48.7124 36.2106 16.0895 6.62208 580848 349246 -208013 -113827 203361 -93351.6 
177 1 37.3001 39.6607 13.9409 15.9807 -107900 437017 313370 -287135 97484.4 -112696 
180 1 37.1008 41.2708 16.3115 11.9915 -289839 426698 -124435 -432463 116398 570.269 
181 1 40.027 39.5923 13.9319 7.33167 -1.21186e+06 -574044 -695292 -282416 99809 9091.09 
159 1 38.5505 38.7363 16.2409 12.2206 246838 364729 150047 -190926 -99050 57829.4 
185 1 42.8264 39.5487 13.9003 7.82369 -639912 272771 -487275 66945.2 75991.5 -97863.4 
161 1 41.5093 38.7151 16.2254 8.22356 -228801 265527 -139492 -224100 174578 70770.8 
189 1 45.6862 39.6376 13.8703 7.84312 -189032 44463.5 -420704 -30842.9 -55289.4 -81701 
165 1 44.2713 38.7643 16.2382 7.85632 -562761 2078.29 -394340 272236 -162566 152680 
193 1 48.5884 39.6463 13.9659 8.03728 -203859 12542.2 -301167 -81043.9 94743.6 -43201.8 
169 1 47.1748 38.7915 16.2157 7.46935 -316844 -347521 -1.07178e+06 -116689 219939 323812 
176 1 35.4453 43.6927 16.2745 11.7441 307323 514433 329469 -122101 -43890.4 -84139.4 
175 1 35.7576 42.1522 14.0184 16.3043 -49085.1 11247.4 300744 -603575 147877 -247547 
179 1 38.4196 43.7571 16.2221 7.63368 -326123 -587115 -842730 -13936.1 79390.3 -321846 
178 1 38.5038 42.1182 13.9774 6.82199 -1.15336e+06 -1.18402e+06 -1.43338e+06 -212.999 176021 -78976 
184 1 39.8946 41.2925 16.239 7.55877 -161175 -84638.3 -533861 -4548.94 -176385 22502.8 
182 1 41.385 42.1368 13.9168 7.71288 -444349 -19541.7 -242785 -32357.5 41138.1 -234563 
183 1 41.2623 43.7534 16.2399 7.43434 56906.9 -144989 -169677 10609.8 -67616.2 57126.2 
188 1 42.8813 41.2696 16.2372 8.08247 202218 -4219.22 -40707.2 -66481.6 216741 97330.8 
192 1 45.7536 41.313 16.2384 8.17123 -82301.4 50372.2 105334 15752.6 -22090.4 119094 
186 1 44.2111 42.1278 13.9154 7.8315 -217666 53650.4 -232280 -59542.5 67865.8 -123181 
187 1 44.251 43.7649 16.2619 7.55751 399212 -215653 -115599 -117709 103142 -52968.3 
190 1 47.123 42.1767 13.8376 8.30805 -222590 62893.2 -32530.7 -22969.9 40577.1 -85826.9 
191 1 47.2453 43.7679 16.2529 7.04455 191330 -172428 -306461 -135986 15769.1 200680 
196 1 48.6167 41.284 16.2952 7.11365 -517544 -596762 -895440 164489 181876 195193 
199 1 34.1409 44.5649 14.0027 18.7548 282333 1.09596e+06 893977 -350637 -53652.8 13949.5 
197 1 32.7233 47.0666 14.0893 23.3445 151891 586718 1.28594e+06 -269357 67841.6 -85739.7 
202 1 34.0218 46.0788 16.4537 12.2322 138010 419975 85036.8 -183390 93610.6 -98721.1 
206 1 36.907 46.2422 16.2702 7.43449 80452.8 -4315.97 -519662 130391 -13400.9 207917 
200 1 35.4118 47.0688 14.0701 7.30564 -256966 -390453 -352592 -169683 -269821 151621 
203 1 36.867 44.5124 13.9438 8.11705 -665921 -1.08743e+06 -533562 -249046 126775 119002 
207 1 39.8521 44.585 13.9419 7.64644 45522.2 -544574 -95753.6 -94253.4 -21311 112658 
210 1 39.8159 46.2254 16.2873 7.53366 184624 -139880 -340721 -92495.4 218015 36391.3 
204 1 38.3716 46.9765 13.9591 7.1375 -112973 -347616 80398.1 -146423 63637.5 235945 
211 1 42.8011 44.6754 13.897 7.53676 20096.1 -37850.4 204026 86778.3 -5353.39 109002 
214 1 42.8024 46.2267 16.3653 7.53031 210477 31292.2 -75182.4 -263977 -49181 -49303.5 
215 1 45.6151 44.6403 13.9881 7.8654 -335180 -161132 -327580 -188620 216967 -32570.1 
218 1 45.6688 46.2392 16.318 7.44442 -116113 -303882 -368065 -189788 136291 34632.2 
219 1 48.507 44.7043 13.9785 7.94295 -133622 -133326 -180794 148252 171449 95526 
222 1 48.5456 46.3548 16.3816 7.13342 144961 189917 282916 6340.86 29714.2 120842 
198 1 32.6822 48.6285 16.3611 24.192 -213009 880367 1.00877e+06 -295321 85474.3 71218.2 
223 1 33.7639 49.5427 13.9911 10.1336 22526.1 -113694 -580578 -191865 261238 -196088 
224 1 36.7411 49.5046 14.0584 7.62942 -151167 -535020 -512487 -129335 -28742.9 31893.1 
201 1 35.3216 48.7099 16.4144 7.86736 -873876 -383718 -349937 -74123.9 -23836.5 -197194 
205 1 38.219 48.7678 16.3581 6.51201 -243577 -474916 -228140 -44026.7 -132959 139327 
225 1 39.5936 49.4339 13.9022 7.61787 -277602 -207571 -297825 -34309.1 205172 -40208.9 
226 1 42.5268 49.5225 14.0302 7.8037 187807 -51333 96176.8 -154578 260165 16499.5 
208 1 41.2408 47.079 13.9741 7.6168 -389177 -654874 -251785 -79934.2 403512 -50140.4 
209 1 41.184 48.7343 16.2924 7.83953 469735 250400 163280 -103750 329003 -109717 
213 1 44.1325 48.7016 16.3652 7.4238 202822 41792.3 -114830 -181396 38025.6 -21533 
227 1 45.5127 49.7348 14.0686 7.31741 -104256 -433321 -103024 -274457 10423.8 40577.5 
212 1 44.1267 47.1977 14.0155 7.62071 -61166.6 -257251 -190941 -20633.6 -18431.7 -100213 
228 1 48.3114 49.6883 14.0496 7.84557 -263500 -42597.6 -242522 135825 198089 13156.2 
217 1 46.9614 48.7753 16.3685 7.69157 -21646.7 -71802.4 103183 -116171 78580.8 125681 
216 1 47.0093 47.1068 13.9419 7.69388 -85983.9 -16061.8 -251835 -108432 185379 -6843 
97 1 49.9763 38.8624 11.5688 7.68424 49029.1 -31889 -417600 83241.6 -12904.2 174220 
96 1 49.9858 37.1441 9.3211 0.69799 -465792 6552.5 -472106 46639.6 234852 -176774 
239 1 43.3572 34.5397 18.3983 20.4326 569776 464066 733047 -540914 132125 -29218.3 
230 1 45.1507 32.3627 18.4253 52.9014 766684 -133620 1.30598e+06 -396677 52033.9 -14152.6 
243 1 46.1407 34.6663 18.3889 5.92582 -509246 -1.31099e+06 -222498 -437103 58473.4 -69622.2 
232 1 47.7826 32.2697 18.2297 36.7516 610524 323691 655664 -8731.51 -203813 83412.6 
247 1 48.9895 34.7424 18.5291 6.01745 -468574 -1.05341e+06 200618 177234 95656.1 -117811 
234 1 38.6334 37.2231 18.5472 25.4251 967754 200006 915102 -323432 -66170.7 34764 
236 1 41.5727 36.9153 18.5563 9.02882 985462 845034 437063 -191349 130126 53806.2 
240 1 44.4039 37.0276 18.4401 7.88977 311057 -98493.3 -100681 -163150 66496.6 -29429.5 
244 1 47.4412 37.1819 18.3573 7.08843 -54465.4 -739994 -186218 77228.1 -27886 82045.7 
253 1 37.1769 39.5857 18.553 19.2957 611869 421041 552149 -256366 -4598.28 -52502.2 
257 1 40.0644 39.497 18.5144 8.00955 67661 299148 193743 -250124 -15249.3 -107520 
261 1 42.8869 39.622 18.5965 7.27845 128331 366332 -165264 38228.5 -19398.2 -145307 
265 1 45.8079 39.5809 18.4709 8.03437 -286351 -66389.4 -763604 131512 -20397.4 -205063 
269 1 48.6448 39.7303 18.5264 7.37805 -334021 -953635 -989739 -165991 160574 9642.57 
251 1 35.8025 42.0348 18.5505 16.8868 -127901 637987 409643 -251858 150076 -126847 
254 1 38.4951 42.016 18.6396 8.2007 -651787 -216508 -442057 -264722 -77406.4 -179725 
258 1 41.4104 42.0904 18.5102 8.34643 205275 3406.21 151414 -121957 8446.11 68481.9 
262 1 44.3414 42.106 18.6782 8.04378 -150312 -335366 -334661 -15407.5 -88735 85648.4 
266 1 47.2144 42.186 18.6065 7.22895 -714355 -589891 -539773 22308.2 136647 155889 
275 1 34.2158 44.535 18.7144 17.5739 40682.9 8218.48 -12408.9 -494460 -92526.3 19582.7 
273 1 32.8534 46.9943 18.6547 22.7081 -365026 533649 992240 63966.3 155431 -77095.3 
279 1 36.9913 44.5494 18.5308 8.17546 -672154 -608707 -309604 99946.7 280024 5153.35 
276 1 35.4924 46.8918 18.6922 8.17041 -978184 -876158 -418587 -263077 -116453 3196.83 
283 1 39.8113 44.5458 18.587 7.53888 -92640.5 -159143 -38214.4 -44785.6 108442 -1722.27 
280 1 38.4887 47.0329 18.604 6.91896 -97712.4 -658762 -330372 -79218.4 -29210.3 -45450.5 
287 1 42.7968 44.5269 18.6585 7.73267 -37681 -409543 -97467.2 -99185.7 118017 74360.6 
291 1 45.6458 44.6324 18.6208 7.62782 -505455 -603834 -177185 -151477 39909.8 140326 
295 1 48.4694 44.68 18.6622 7.09084 -142841 -577841 33229.7 -163050 -129435 63825.6 
299 1 33.9066 49.5132 18.7817 9.96967 -79336.8 339616 403982 -74381.6 -39358.5 -269172 
300 1 36.7332 49.4774 18.716 7.72502 -173030 -569615 -1.01715e+06 -93011.9 -139710 151620 
301 1 39.7373 49.4532 18.6699 7.53264 12121.7 -463987 -457753 -125085 -125573 -25006.9 
284 1 41.3702 47.0218 18.7619 7.75683 -559699 28804.9 -545235 115704 275464 -35422.4 
302 1 42.6482 49.6596 18.7131 7.82133 325400 -85071.4 -5069.37 -199289 75232.9 145532 
288 1 44.1831 47.0469 18.6445 7.955 -609029 -132066 -414415 -127914 -71808.5 261836 
303 1 45.552 49.5666 18.7499 7.56559 205012 369675 155993 -24334.9 -5085.37 8578.47 
292 1 47.0411 47.1089 18.757 7.93586 -367632 -500811 -84944.6 -90039.2 162032 29974.4 
304 1 48.41 49.5826 18.7822 7.6323 233195 403004 459376 -125984 36132.7 66396.3 
229 1 44.6205 33.6865 20.8296 15.7798 560955 459250 1.35883e+06 -335333 -31599.9 -93167.9 
306 1 45.0651 32.2672 23.1393 40.3504 724531 -7722.86 924710 -244989 18983.6 -31681.6 
231 1 47.4248 33.5549 20.7213 6.95134 1.63643e+06 979011 1.55671e+06 69013.1 -26948.7 215014 
238 1 40.0555 36.3895 20.7554 25.8581 673446 132011 1.11104e+06 -492599 163837 6036.79 
242 1 42.962 35.9983 20.8077 10.0308 1.03485e+06 964551 1.07516e+06 -231125 -70617.4 73111.7 
246 1 45.8164 36.169 20.8517 7.0301 567843 241215 471447 34812.1 -165593 177251 
316 1 44.3675 37.0059 23.2888 7.60047 317498 34550.5 315162 -215915 266287 152996 
250 1 48.6737 36.1795 20.9115 6.31049 699839 761164 141336 145304 -24681.6 44305.6 
256 1 37.0521 41.0829 20.8721 12.6002 602019 553490 418538 -91173.8 216706 156863 
235 1 38.4929 38.6605 20.8732 12.4082 473916 384773 376828 17248.7 71900.5 -111500 
260 1 40.0494 41.1514 20.892 7.78204 828761 668846 321899 129456 -149720 122998 
333 1 40.0636 39.4984 23.2132 7.6582 -360387 -30211 83142 -325313 104947 441.844 
237 1 41.4766 38.5896 20.92 7.82828 473291 60624.3 228076 -354956 3118.92 -155057 
241 1 44.3637 38.5901 20.8432 7.34825 429331 538327 463758 227730 -68125.8 -36272.3 
245 1 47.2392 38.6927 20.7616 6.97392 499960 313495 299318 90641.5 33262.6 147743 
252 1 35.6755 43.6371 20.8739 12.6256 87967.1 326370 280414 -288749 49864.1 119771 
327 1 35.8278 42.06 23.1656 24.9357 426609 732526 966404 -380573 42486.6 71113.5 
255 1 38.5216 43.62 20.9494 7.39274 590598 582796 35508.1 182393 160388 -83914.6 
330 1 38.5985 42.0455 23.325 7.27791 -302917 -563448 -83134.1 -31801.1 160704 158063 
264 1 42.9159 41.1543 20.921 7.10828 238270 255532 -209948 -209387 197256 -180301 
259 1 41.4299 43.7452 20.9857 7.83237 388844 392443 127291 -242966 326795 129672 
334 1 41.4741 42.0535 23.2484 7.54046 -326002 -349124 -62363.7 186664 -3837.96 50310.1 
268 1 45.7995 41.1526 20.8152 7.45987 -26543.1 12886.4 -472063 84479 -203922 174947 
263 1 44.3484 43.7136 20.9847 6.9388 -351740 -377050 -802285 -170723 -32960.8 79980.1 
338 1 44.2922 42.1553 23.2404 6.83632 -79425.9 -359457 -251185 -14118.5 -81753.4 109303 
272 1 48.6876 41.2593 20.8583 7.38834 -214817 241873 -420766 -36313 157354 -29447.3 
267 1 47.1318 43.7624 21.0434 8.14389 -406316 61855.1 -152279 -45595.4 114166 55660 
278 1 34.0311 45.9604 20.9785 12.5304 481063 539925 -169595 -201522 90739 4548.75 
282 1 36.9823 46.1114 20.981 7.53696 539733 14795.5 -9996.29 -32092.4 -35583.8 -12373.6 
351 1 34.418 44.492 23.21 21.9082 204282 528495 524227 -296077 -9763.75 122026 
355 1 37.1537 44.4708 23.3304 7.15155 -443107 -584483 -155474 85198.6 -104254 -71094.7 
286 1 39.9266 46.2747 20.9161 7.23185 -16206.6 122982 -306815 -247966 169320 61834.8 
359 1 40.055 44.4535 23.3322 7.63273 -379975 -472731 -14419.6 115351 -43002.2 -103677 
290 1 42.8431 46.2006 20.9779 7.61701 -395247 48117.4 -328823 -64209.1 -99020.3 114841 
294 1 45.6084 46.2549 21.0028 7.52466 -399539 -154809 -153720 -353868 101271 139789 
298 1 48.5145 46.2845 21.1327 8.03441 -125523 -44145.6 -102546 11187.6 -56015.3 99144 
274 1 32.6398 48.5156 21.1252 29.0688 468311 1.53892e+06 1.37145e+06 -88360.9 -79605.6 115738 
277 1 35.3561 48.6007 21.0578 7.38143 -66506.7 217107 -512927 176910 127324 313194 
376 1 37.0115 49.5059 23.3697 6.79626 -168421 -722833 -571014 150153 131842 115072 
281 1 38.2452 48.6388 20.9708 6.84442 27936.8 -437152 -50601 103759 133360 -130061 
377 1 39.8194 49.5302 23.3739 8.1123 -253366 -305191 188154 191103 104685 89467.1 
285 1 41.2275 48.702 20.965 8.11133 -47161.3 -525244 -274377 -188466 40843.8 -89454 
378 1 42.7182 49.622 23.4428 7.67303 -367842 -397183 -668912 332487 125030 159202 
289 1 44.0734 48.8882 21.1205 7.46486 -521036 -163308 -92032.1 162195 121294 102635 
293 1 46.9058 48.7403 21.1396 7.12593 216679 -43688.5 -386031 159571 47033.9 101619 
315 1 43.395 34.47 23.2078 22.0811 497178 656787 1.08749e+06 -521318 61316.9 -109162 
319 1 46.1232 34.6243 23.1273 5.63679 -861722 -1.03341e+06 -37098.5 -458458 -114525 191924 
305 1 44.8133 33.5542 25.5073 12.9475 166570 477020 1.16595e+06 -551934 124813 -5844.73 
308 1 47.7168 32.2158 23.1103 36.391 518120 -41406.3 805052 -198391 -141300 -27004.2 
323 1 48.8978 34.6175 23.1684 7.1989 -916275 -1.2686e+06 -246268 -13245.2 130146 208543 
307 1 47.4869 33.6142 25.5241 7.4799 558247 598827 1.17067e+06 -46694.7 -27593.9 169094 
310 1 38.8353 37.1558 23.1462 22.5501 457879 281644 1.41093e+06 -411424 28813.3 119211 
314 1 40.0487 36.2423 25.5331 30.1379 1.06432e+06 521364 1.38076e+06 -523076 87005.7 -81798.7 
312 1 41.5233 36.8203 23.2047 9.66467 717669 1.01933e+06 1.02153e+06 -226247 -66239.4 74029.9 
318 1 43.0351 36.0698 25.5153 9.58033 719178 732928 73951.8 -388272 34648.3 308685 
322 1 45.8485 36.0774 25.6382 6.86729 348997 428612 4715.29 116588 151191 -72274.9 
320 1 47.2766 37.1721 23.2586 6.97621 604517 -271023 660500 -245020 56423 -178342 
326 1 48.7386 36.1717 25.6077 6.61236 525583 616919 406223 -16404.9 40117.2 34044.1 
329 1 37.305 39.582 23.1566 24.6814 398754 807576 674910 -398690 124597 17854 
332 1 37.2027 41.1496 25.546 12.5269 226345 578965 1.26603e+06 -529548 96285.4 20912.5 
311 1 38.5876 38.7094 25.5928 11.1114 289053 698093 1.23367e+06 -454371 1935.03 103282 
336 1 40.0369 41.0941 25.6313 7.92824 -101284 121455 -150737 -58629.5 -86869.7 -11399.1 
337 1 42.8835 39.5123 23.229 7.45212 160587 567355 48012.2 186712 -99903.9 -158476 
313 1 41.4172 38.5066 25.5881 7.19811 442545 -21744.2 231601 -38478.9 79746.3 84246.9 
341 1 45.7471 39.5727 23.1973 7.39725 338381 108369 309218 -163383 -70541.1 157882 
317 1 44.3983 38.6871 25.5976 8.20822 -93132.1 85693.7 -80362.2 56395.6 72775 -64045.7 
345 1 48.6853 39.5705 23.2297 7.94687 176080 38397.4 519444 -55646.1 18276.7 154201 
321 1 47.1705 38.7969 25.5807 7.10381 -334017 422166 82144.6 180031 136198 -281398 
328 1 35.5976 43.5515 25.6409 12.9297 543119 852628 1.25076e+06 -152240 22813.3 77925.9 
331 1 38.4781 43.6121 25.6794 7.14584 206818 -176252 -483445 100460 25587.2 -254246 
340 1 42.88 41.0633 25.5576 6.83251 -152804 124819 -198881 158485 57426.8 -166071 
335 1 41.4129 43.669 25.6225 7.65095 161304 230812 -434461 -13765 -4258.12 145831 
344 1 45.7379 41.2053 25.6191 7.29903 -495561 -782646 -91368 266080 134090 5755.26 
339 1 44.3517 43.6207 25.6522 6.63049 -393962 -457107 -747883 197843 637.402 165080 
342 1 47.2058 41.9764 23.1817 7.82371 36691.4 150341 28990.8 -66604.4 -80439.3 140844 
348 1 48.5795 41.3382 25.653 7.34209 -246995 -136217 -56778.3 153434 257941 206311 
343 1 47.1363 43.7191 25.6192 7.8623 -415545 -480006 -127960 2538.57 131969 523649 
354 1 34.2061 45.9712 25.6635 11.412 163153 321015 718280 -160346 -88631.7 8340.35 
349 1 32.8868 46.9129 23.2951 24.7557 321510 819760 1.18097e+06 -85451 97200.6 -50122 
358 1 37.0495 46.1108 25.6239 7.80654 -178827 -211880 -299664 221235 237162 11962.4 
352 1 35.6087 46.9859 23.2588 7.27949 -83201.2 -330507 -440750 -96088.1 3985.4 66552.7 
362 1 39.9028 46.1506 25.6694 7.18062 -93387.8 -22358.7 -389166 80800.9 -207764 50456.1 
356 1 38.5242 46.9558 23.3927 7.1347 -317616 -9855.02 -280483 -146352 -9315.7 80637.3 
363 1 42.9154 44.5886 23.3873 7.807 -825415 -399378 -272952 153916 14661 -14422.4 
366 1 42.873 46.1759 25.7063 7.47122 93620 216976 -195997 -56323 275851 35928.1 
367 1 45.6738 44.6021 23.342 7.35402 -593630 75232.8 -608276 -236505 -18405.7 -27221.6 
370 1 45.6555 46.2166 25.6977 7.27745 -144358 137037 41142.7 -153178 -112142 137407 
371 1 48.5514 44.6077 23.4301 8.09954 -106580 227877 -238163 -257691 303381 27168.8 
374 1 48.5384 46.2024 25.7911 7.69091 147938 -205747 75425.9 -222667 1298.27 -124763 
375 1 33.9849 49.4701 23.3466 9.86963 362181 387356 129836 69902 73921.9 -276223 
350 1 32.8469 48.3478 25.6957 27.3572 284468 933698 1.29783e+06 41539.1 51153.2 122153 
353 1 35.5624 48.5306 25.6295 7.6259 -264618 -239748 -6256.8 46121.2 32095.3 55876.4 
357 1 38.4127 48.6125 25.703 7.83736 -262601 -198801 -341349 13951.2 -231897 -34182.3 
360 1 41.3154 47.0203 23.3286 8.30165 -103110 322506 365792 -68096.2 34963.9 18539.4 
361 1 41.3095 48.682 25.7324 8.28162 -89290.7 -107208 -112247 -68121.3 158430 94585.4 
364 1 44.2059 47.168 23.4011 7.21205 -221337 -349567 -216160 -103499 841.544 15429.5 
365 1 44.185 48.8111 25.6832 7.869 -256325 -147569 -214391 -63068.2 62176.2 -37622.8 
379 1 45.5931 49.6753 23.4504 7.35439 -498630 -976904 -873423 148348 226480 7735.16 
368 1 47.0156 47.2602 23.4474 6.85025 -65631.6 -251748 -461441 -37563.6 155794 102033 