ITEM: TIMESTEP
20000
ITEM: NUMBER OF ATOMS
5538
ITEM: BOX BOUNDS pp pp pp
0.382303 99.6177
-0.0776302 100.078
4.25674 95.7433
ITEM: ATOMS id type x y z c_csym c_2[1] c_2[2] c_2[3] c_2[4] c_2[5] c_2[6] 
4 1 48.421 33.5012 7.32982 45.8298 335802 -284140 505253 -408762 128443 -176332 
5 1 49.8798 34.065 5.26292 26.0118 56263.5 -335233 82716.1 -219904 414809 -72914.9 
1 1 42.379 36.3818 5.38424 21.9992 1.08964e+06 -13753.2 1.40639e+06 -190156 53927.2 -259779 
3 1 45.3309 36.3412 5.24624 13.4474 608286 -205868 271771 21032.9 -206476 -8187.99 
2 1 46.7565 35.5396 7.57854 11.67 99929.1 -355552 -115849 117940 176508 67424.7 
19 1 48.1881 36.2464 5.37415 5.53074 222038 309510 -180492 146265 120877 -166053 
80 1 49.7419 35.6592 7.65948 0.5738 -638514 -1.53582e+06 -1.08081e+06 -306955 -41183 -7623.21 
78 1 48.1855 38.0584 7.53318 0.229351 -758632 -349215 -767245 103384 204940 87856.4 
7 1 35.3346 38.9868 5.50713 39.3334 734040 540498 781307 -142285 -53774.6 15837.1 
10 1 38.118 38.8037 5.34462 13.631 568800 325923 334571 -189148 -11913.2 237257 
9 1 39.5935 41.237 5.37516 0.459565 -110001 9072.01 -157409 -39644.1 -19128.2 -45325.1 
14 1 41.0172 38.7577 5.26261 6.3721 -258496 5398.88 -64559.4 89590.6 -83809.7 318668 
18 1 43.8338 38.6743 5.23244 0.444903 -499879 -308697 -359583 164721 -54010.8 -78486.4 
22 1 46.7542 38.782 5.21693 0.195961 -266299 -90302.7 -744406 -5540.39 9914.66 56350.2 
41 1 46.8381 40.6073 7.50233 0.20776 -232106 107318 -404077 15792.2 -130238 191653 
21 1 49.613 38.871 5.31532 0.254226 -303973 -38020.2 -834508 24701.4 48924.7 -82111.7 
20 1 49.7025 40.5881 7.50468 0.236166 -178677 -307059 -129013 262325 -17754.1 -909.583 
44 1 48.1902 41.4017 5.17925 0.0875806 -283882 321729 -626109 -51376.2 122433 144669 
28 1 33.9124 41.3087 5.41696 32.4707 461555 793261 691165 -415622 -120650 -68144.4 
24 1 32.4666 43.742 5.20604 29.7358 95763 888658 795147 -656963 285814 177194 
32 1 36.6843 41.3532 5.24737 0.569932 -300946 -363368 48769.4 -289065 223602 213653 
27 1 35.1702 43.7443 5.19955 0.209089 -842804 -722968 -91578.2 7768.32 -15832.3 -67087.8 
31 1 38.0251 43.7893 5.3042 0.210964 19434.6 -180596 232856 -164212 -95036.8 -17640.8 
13 1 42.4334 41.2149 5.26567 0.207517 -135008 -115054 -410163 51672.1 -171581 -129118 
36 1 40.9542 43.7307 5.24041 0.183024 352266 113235 -91439 -85006.1 -13782.7 -151819 
34 1 42.3684 42.9231 7.50022 0.401195 471542 442078 27233.5 70549 -231091 26540 
17 1 45.3769 41.3018 5.27223 0.256331 -180299 440174 -447425 201012 123158 319691 
40 1 43.8916 43.7877 5.20009 0.134471 22246.8 142938 -753379 173506 -180804 69376.3 
39 1 46.769 44.0096 5.2125 7.26773 255057 361539 -111269 114361 -9320.79 -62960.6 
43 1 49.589 43.9968 5.14513 7.61188 451738 752395 401996 41429.5 -71079.1 -30712.6 
67 1 48.2187 43.1154 7.52241 0.102882 374280 361452 221375 13590.3 -26677.4 28475.3 
50 1 31.0488 46.1636 5.27174 36.9698 -393231 296176 182483 -272826 170143 39961.6 
54 1 33.6726 46.1712 5.13959 0.448667 -1.24141e+06 -885262 -351118 -289887 -188002 35147.4 
58 1 36.577 46.2096 5.15857 0.236907 -88624.5 -297345 312252 35589.9 -37313 120522 
62 1 39.4706 46.2746 5.21487 0.112604 273482 374715 171607 -25655.8 -13661.6 -1550.23 
55 1 37.9502 45.5355 7.62583 0.21667 297016 -89121.3 286741 32234 -25311.5 -68243 
35 1 42.4041 46.2709 5.22143 0.163646 467614 86715 -220587 3559.63 4071.73 -222318 
59 1 40.88 45.4993 7.54057 0.0944073 677844 405557 62660.1 -154210 41731.8 52558.6 
63 1 43.9273 45.4782 7.49585 0.492125 53287.5 -124960 2237.82 339622 -343504 10552.3 
1438 1 45.2905 46.3596 5.10816 21.8251 959210 748857 755270 109686 95285.9 -213497 
70 1 46.7206 45.6495 7.52085 6.85113 -225930 -574899 -635851 14238.7 12493 -406771 
68 1 49.5886 45.7498 7.43053 7.10626 620723 330725 242859 -31262.8 -42290.4 -205107 
46 1 32.1023 48.6136 5.15014 12.6345 476810 99838.3 950373 -189043 137029 -140108 
49 1 35.0609 48.598 5.31281 0.893239 399626 -100169 67376.1 -284707 -84371.8 -177241 
53 1 37.9163 48.7314 5.04809 0.4266 325186 212588 -95597.2 -30959.6 112409 -89458.9 
56 1 39.4558 48.069 7.48767 0.278149 -2611.16 -250189 270917 -5493.7 75710.3 -62085 
57 1 40.9028 48.8007 5.10082 0.21115 444913 619956 -234238 -167351 90066.4 96403 
60 1 42.2874 48.0012 7.47002 0.0707193 22980.2 101042 -72633.1 -189847 -70114.7 -22447.7 
66 1 43.7623 48.7996 5.07184 7.47348 187555 430625 -312333 -28994 -128217 -181536 
64 1 45.2022 48.024 7.33169 6.9961 -55443.9 -358151 -151177 228869 -288717 152177 
65 1 48.0531 48.0793 7.16698 18.8707 878344 680769 1.09242e+06 30813.1 147415 34541.6 
87 1 42.6012 34.9819 9.97801 32.7479 499030 165631 657599 -367246 240894 -17656.9 
91 1 45.3636 34.787 9.88007 21.3713 1.03885e+06 518878 793321 -92569.2 -2896.45 62473.4 
95 1 48.2971 34.7651 9.83051 11.3019 1.33414e+06 641318 923664 -114663 24670.6 385812 
6 1 36.7464 38.2258 7.63625 32.8055 -224608 -106823 491662 -451946 249296 -29808.2 
8 1 39.4479 38.0061 7.63843 11.8997 -115518 84573.5 212077 -30559.7 -249248 88173.5 
82 1 38.0725 37.4804 9.93772 34.237 573870 237628 1.07935e+06 -346626 371495 -123904 
12 1 42.3455 38.0892 7.61826 0.479031 -346635 -1.27184e+06 -591690 -212318 -60988.1 -83995.4 
11 1 41.1411 35.8306 7.81189 35.96 384389 -577044 380241 -399807 103531 -342750 
84 1 40.8938 37.2682 9.98171 5.56629 737868 184823 -236270 -95127.3 85562.7 -247344 
15 1 43.8861 35.6582 7.68285 20.8355 487336 77949.3 551923 -141801 81595.9 -204179 
16 1 45.419 38.0003 7.53133 0.341465 -333500 -75765.4 -402615 57548.4 9453.21 78720.8 
88 1 43.9368 37.2996 9.96884 0.177562 266372 -291194 -42731.3 -192660 -123324 -243156 
92 1 46.8422 37.2469 9.88521 0.129178 -108557 215477 -373571 35025.1 -74211.7 69646 
96 1 49.7296 37.31 9.9454 0.203845 -117060 313503 -217965 113425 75917.4 -189250 
25 1 35.1823 40.5962 7.70914 21.6053 160846 136569 351654 61256.4 -61771.3 -47928.6 
101 1 36.5934 39.7676 9.99172 22.987 242941 441864 555543 -240386 116536 152196 
29 1 38.0561 40.5185 7.69505 0.123883 -351490 -756026 -287561 -279897 -16283.5 46618.8 
105 1 39.4608 39.7791 9.98208 0.104893 -127653 -294927 -373401 -210246 -94997.3 250229 
33 1 40.9542 40.4555 7.6624 0.222542 -163369 -152569 -354906 232682 -149913 269322 
109 1 42.4641 39.7712 9.91053 0.167808 393946 182356 -200729 254727 -261447 16213.5 
37 1 43.9588 40.5335 7.4997 0.345109 125277 242207 -178011 23253 22524.6 181414 
113 1 45.4082 39.7369 9.88116 0.1728 102872 147844 171698 -117518 -206541 37144.1 
117 1 48.2379 39.7608 9.87794 0.143713 26392.8 274683 -39294.4 -14126.5 50924.1 60100.1 
23 1 33.7909 42.9233 7.62604 21.6493 174707 100302 749396 -152296 70853.1 129380 
26 1 36.6262 43.0608 7.75034 0.528774 -486056 -292251 58559 106358 -74997.6 137398 
99 1 35.0593 42.168 9.96897 22.8618 476853 723124 296222 -109553 100328 -187352 
30 1 39.4015 43.0379 7.62215 0.265035 42200.2 240798 304947 -119566 -64460.4 -98250.2 
102 1 37.9127 42.2422 10.0691 0.5537 216528 -9966.48 -587438 48219.1 -205549 34579.7 
106 1 40.9275 42.2097 10.0457 0.400251 304463 -9248.44 -103671 -117158 151736 -604.834 
38 1 45.2916 43.1265 7.53391 0.199336 -97235.7 -414301 -475594 269187 -108657 103693 
110 1 43.8669 42.2982 9.82377 0.304459 -42945.9 -19064.7 -163222 -62497.8 65381.3 -53606.7 
114 1 46.6988 42.2842 9.86418 0.111681 31810.3 64533.4 -160846 17884.7 -245144 -83662.7 
118 1 49.6406 42.3563 9.91271 0.134767 309065 391999 34408.2 147390 -85390.1 199415 
47 1 32.1849 45.3165 7.61646 23.4586 259590 64595.2 964899 -20375.2 -54187 166928 
123 1 33.6365 44.6024 9.96811 21.991 601609 899074 811449 -194431 -36730 88224.5 
121 1 32.2039 47.0107 9.85543 25.6483 494173 1.02214e+06 1.22397e+06 -196038 462087 221333 
51 1 35.0459 45.383 7.55514 0.275828 270141 -119452 516442 290005 -120358 -12933.8 
127 1 36.5155 44.7921 10.033 0.456865 360954 -137694 -369469 291659 162665 3691.94 
131 1 39.5359 44.7436 9.94223 0.250273 87543.8 121626 -177254 -44250.2 -35566.8 33545.3 
135 1 42.3707 44.7011 9.90731 0.158977 -377443 162904 -23318.4 151244 14248.3 221166 
139 1 45.2454 44.8059 9.87529 0.250777 -557811 -478031 -1.2331e+06 -41670.2 -229918 191126 
143 1 48.1445 44.8257 9.82296 0.129835 -95680.9 -219848 -347849 -53589.2 -69760.6 -79418.5 
45 1 30.9614 47.6013 7.46914 44.0838 -536192 67195.7 385220 261746 -38063.6 28746.7 
48 1 33.5507 47.7844 7.61566 0.313501 -1.14157e+06 -506872 -116569 -19336 321686 138945 
147 1 33.501 49.531 10.0126 6.61827 449031 534690 718350 141334 173900 79864.9 
52 1 36.5167 47.9687 7.55719 0.161783 67853.1 -22687.5 76265 306350 -399488 -32197.6 
124 1 35.031 47.1302 10.0075 0.228517 260562 -57352.1 84505.5 222382 -264233 179837 
148 1 36.422 49.6275 9.84085 0.132239 239358 -39388.2 -176754 -25183.1 -239626 -13660 
128 1 38.0136 47.2598 9.91457 0.180104 122996 -210557 21647.8 -42076.7 -123142 -165534 
149 1 39.3523 49.7172 9.8515 0.127245 -438296 -341425 -577095 -132086 -54835.3 16399.8 
132 1 40.8823 47.2002 9.85636 0.129342 -73290.8 -82587.3 -62332.8 -122267 57316.6 -77688 
150 1 42.1593 49.8089 9.7322 0.358303 -168065 -253586 -249097 -96790.5 6458.66 -25721.4 
136 1 43.7585 47.2932 9.7906 0.126148 218644 413422 288905 924.116 -83183.9 8595.39 
151 1 45.1721 49.7918 9.76412 0.398617 -29883.9 -372496 -293283 8559.8 -20822.7 65245.4 
140 1 46.6548 47.3268 9.57147 0.574446 -117174 -487854 -561250 84124.7 -218344 -446993 
144 1 49.5118 47.2944 9.66539 0.273579 215751 -232207 117909 -98393.2 330049 -268733 
152 1 48.0538 49.8369 9.51678 0.424056 -355721 25364.6 -13360.2 -259134 -46443.4 297593 
77 1 43.9832 34.2396 12.2006 36.728 772997 136507 1.19812e+06 -229624 -79204.2 51018.9 
79 1 46.862 34.2463 12.2122 20.3971 1.1695e+06 173635 821961 -28164.2 110882 -165534 
81 1 49.7438 34.1643 12.1955 12.0942 1.21087e+06 360842 848596 -222761 162153 -129879 
86 1 39.589 36.7622 12.3557 23.6588 380086 263627 842333 -372735 146565 -35704.3 
90 1 42.3981 36.4957 12.3889 9.31136 228385 142716 82703.5 -165458 250233 -94470.1 
94 1 45.3645 36.5497 12.3075 7.50989 -358422 -533188 -234554 82524.7 -118218 149828 
98 1 48.2353 36.6574 12.2642 6.92569 -444087 -138886 -440364 70668.8 161337 73901.6 
83 1 38.0498 39.0366 12.3125 11.3825 269740 665381 561533 -22699 196954 -33067.7 
85 1 40.9694 39.0754 12.2959 7.47726 -189908 -25410.4 42185.9 -147993 64275 -122900 
89 1 43.7887 38.9448 12.2485 6.85736 163157 -258230 -58641.2 200852 -35601 -23464.3 
93 1 46.8356 39.0427 12.2015 7.76128 85494.8 -440673 -244407 120988 -129475 100039 
97 1 49.7511 39.0867 12.2235 8.03031 -69865.6 -48777.8 -315153 -314674 -35047 -4549.45 
104 1 36.563 41.4481 12.3399 12.7768 148398 178730 -94321.7 -40502.6 433512 -86324.1 
100 1 35.1141 43.8213 12.17 12.4148 136370 -148887 -100113 83207.1 47811.8 282540 
108 1 39.5467 41.6269 12.3115 7.04423 -174602 -124572 -734439 245471 236448 -3982.6 
103 1 38.0484 43.967 12.2867 7.92701 243371 -335356 -434486 233306 -214330 65317.3 
112 1 42.468 41.5081 12.2838 8.18167 -565280 -208280 -45791.4 -103156 -196643 107936 
107 1 40.9989 44.0562 12.2266 7.38808 -415944 -512006 -833406 -308725 -173865 97003 
111 1 43.884 43.9423 12.1421 7.86919 -834459 -209797 -727989 -89275.6 -24004 91294.1 
116 1 45.2344 41.4336 12.2674 7.08477 -391477 -29754 43191.6 225336 145006 -95831.5 
115 1 46.6325 44.0352 12.0892 7.64271 -628439 -212382 -521411 357588 -139548 118411 
120 1 48.1471 41.5838 12.1659 7.45374 44324.2 19485.6 -419146 8841.26 185074 171916 
119 1 49.5735 44.0833 12.2074 8.04719 445266 313439 183304 111553 -9352.37 21598.6 
126 1 33.7237 46.1866 12.3205 10.3688 -117828 47512.4 504403 -80250.4 87899.9 115361 
130 1 36.4706 46.4589 12.3323 8.0483 -143793 -118077 -443589 145987 -75780.5 46427.1 
134 1 39.4323 46.4835 12.2502 7.73717 369958 -19855.7 62302.5 -171991 -226906 114348 
138 1 42.397 46.5227 12.2021 7.40691 178579 -8571.81 -449672 -251651 -90933.7 71323.3 
142 1 45.355 46.5656 12.1161 7.30691 -239435 -225995 -110393 -24479.7 46537.9 -272447 
146 1 48.1294 46.5606 12.0135 8.17959 -110833 144434 141154 101084 162340 -185648 
122 1 32.4214 48.5726 12.3217 27.3769 -263319 868560 1.24699e+06 -67464.4 35970 77962.2 
125 1 35.0271 48.9345 12.3104 7.34307 -1.50317e+06 -649643 -745774 227467 -9103.19 -20483.7 
129 1 37.8551 48.9421 12.1894 7.51855 -335450 -338170 46888.4 -138457 -54314.7 -105486 
133 1 40.7842 48.9648 12.1074 7.73022 160911 -178604 -257951 -120146 -222286 145129 
137 1 43.7834 49.0575 12.07 7.54988 -39344.6 -253393 -349110 -261094 148128 25818.8 
141 1 46.677 49.0349 11.9761 7.62754 -351271 -496540 -291743 -145163 -175194 124899 
145 1 49.5421 49.1465 11.9399 7.86804 -420065 -311950 238797 -230787 282037 57543.2 
163 1 42.7623 34.9831 14.6962 23.9755 534603 -220697 824716 -188675 -94952.8 -83944 
167 1 45.4781 34.842 14.544 12.7111 503659 191655 700850 -49593.7 84891.1 67386.5 
153 1 44.14 34.129 16.9716 18.1191 497002 393283 982809 -87781.1 107499 -95595.6 
155 1 46.9292 34.0688 16.9226 11.8806 1.13934e+06 373641 678310 109079 71754.4 -263747 
171 1 48.3261 34.8046 14.5344 10.36 542975 418811 437002 66704.9 -97795.2 26107.9 
157 1 49.8525 33.9931 16.7604 10.1102 916961 121868 318624 -156969 -68757.2 416445 
158 1 38.3462 37.435 14.6797 33.6384 281271 298126 871163 -212788 114111 -169876 
162 1 39.6434 36.6516 16.9684 26.5742 925384 263574 1.43483e+06 -282023 -5856.28 145099 
160 1 41.063 37.2025 14.6262 9.44441 9920.99 376950 -239298 122798 134100 -305459 
166 1 42.6034 36.4372 16.9542 9.87709 641652 183469 -291101 -155361 3664.32 -175552 
164 1 43.9846 37.3834 14.6467 7.99422 -122838 -413231 -381523 -225560 46440.3 7184.3 
170 1 45.5491 36.554 16.8974 7.51898 -2325.23 54563.2 -975502 191560 226675 323730 
168 1 46.9138 37.3273 14.5558 7.54951 -187786 269588 -555392 5401.41 264070 -54570 
172 1 49.7895 37.4339 14.5571 7.66191 -204190 -22670.3 -366843 138181 -168.343 -61100.8 
174 1 48.4188 36.5309 16.9137 7.60941 -277490 303530 -169367 46970.5 4481.82 233461 
177 1 36.8988 39.8692 14.6469 16.9437 199267 818540 683726 -310239 160404 -44946.3 
181 1 39.6276 39.8137 14.629 7.79143 -248479 272001 -71083.1 -86291.7 63879.2 -119158 
159 1 38.172 38.8982 17.0126 12.2833 335499 539606 529163 -242280 31684.9 -77466.2 
185 1 42.522 39.8398 14.658 7.47301 227698 508890 -81668.4 130390 26819.3 28350.8 
161 1 41.0523 38.9345 16.9287 7.97214 327938 220820 89069.1 -67210.3 88259.3 135595 
165 1 43.9651 39.0534 16.974 7.62255 335824 -176382 -764099 163295 97484.8 239032 
189 1 45.4162 39.8507 14.6735 8.24956 -174983 -121654 -48722.5 -73743.6 92548.2 34720.1 
169 1 47.0446 39.1291 16.8791 7.51777 410122 60478.8 -336779 -189133 33187.2 343283 
193 1 48.2261 39.9411 14.4989 7.71806 -146635 -214460 -290611 19320.1 220299 37395.8 
173 1 49.93 39.0549 16.8508 7.3523 -448767 -99554.5 -353984 -335741 91864.6 92125.1 
175 1 35.4487 42.4469 14.5414 19.703 -644341 -312101 -74879.7 -374756 140877 -107386 
180 1 36.6096 41.4965 16.9216 11.7059 552548 958796 958936 -260438 -98233.4 -78436.9 
176 1 35.1235 43.8314 16.9888 11.7015 643269 586753 974655 -280179 107630 -137752 
178 1 38.0961 42.383 14.5786 7.89074 -857702 -284743 -466865 -119085 99519.2 60776.3 
184 1 39.4912 41.4363 16.9433 7.57024 1.11293e+06 755767 360138 184614 -23269.9 -114338 
179 1 38.068 44.0142 16.9377 7.96047 577179 443397 235565 133670 77142.8 -56623.5 
188 1 42.5453 41.5136 16.9415 7.79125 322586 91155.3 -62701.3 -70993.2 3193.09 -128913 
182 1 41.0184 42.4462 14.5819 7.97027 614194 289355 174892 -160488 -78068.6 -153153 
183 1 40.9599 44.0514 16.9085 7.62058 21934.7 353150 -121141 106098 -43898.8 -161115 
186 1 44.0172 42.3723 14.5785 6.6782 -58531.1 -284110 -624292 -12625.3 -20384.5 -110642 
187 1 43.8152 44.0578 16.851 7.22497 -127795 -17738.5 -457279 20273.1 59108.4 -107131 
192 1 45.3758 41.569 16.8756 7.59445 -333981 -419944 -530114 -233848 -91359.9 -9559.97 
190 1 46.8625 42.3621 14.5118 6.98863 -355819 -358155 -398558 163528 133585 -223831 
191 1 46.7107 43.9871 16.8151 7.05287 -121096 -548293 -312174 -100289 159142 -16906.9 
196 1 48.3012 41.6141 16.8607 7.33685 -252985 -310817 -188014 -266599 -139912 20065.9 
194 1 49.7646 42.4262 14.5369 7.12501 -170661 248159 -183785 110063 -62692 230634 
195 1 49.604 44.1295 16.9089 7.87882 28664.4 -380532 -157198 -39502.4 22399.5 16988.8 
199 1 33.7605 44.7158 14.5901 26.0659 12520.6 289959 581837 -202411 10987.3 162933 
202 1 33.5567 46.2905 16.8967 13.0719 396077 608428 496517 -82063.9 701.74 236039 
203 1 36.4642 44.8531 14.6173 7.35126 -292765 -1.14934e+06 148262 -336983 39044.6 127966 
206 1 36.457 46.3375 17.1099 7.26622 508926 -421932 -416787 353510 -86270.1 -71194.9 
207 1 39.4593 44.8856 14.6239 7.67373 284548 -29225.9 -11760.6 -204546 -55733.8 108404 
210 1 39.532 46.5112 16.9985 7.82739 -86870.7 -433308 -205036 78112.1 61659.3 -209843 
211 1 42.3893 44.8924 14.4971 8.13522 -170263 -281788 -316043 -207405 -248185 106393 
214 1 42.3773 46.5829 16.8692 7.57073 -42450.5 -161583 140128 -97004 -59861.8 -41294.5 
215 1 45.2383 44.8497 14.4891 7.62523 -181240 -121485 -25364.5 -88206.7 -4392.39 -19718 
218 1 45.3275 46.5906 16.8135 7.80996 -187699 73127.7 -3718.82 -199427 -29124 66519.2 
219 1 48.1035 44.9139 14.4911 8.01055 570967 459563 329261 -125347 191287 -180215 
222 1 48.1192 46.5235 16.8146 7.26365 -703403 -700211 -84004.9 228949 -14089.5 -30311.3 
197 1 32.2817 46.9935 14.6975 38.919 45939.4 978382 1.01438e+06 167263 -253453 152009 
198 1 32.3926 48.7488 16.9078 24.288 102134 753033 1.12107e+06 -46479.6 47356.2 191810 
223 1 33.5582 49.6632 14.5879 9.25633 -82677.5 787812 -231888 368443 188457 -38532.2 
224 1 36.3914 49.8382 14.6184 7.07456 215631 -97571.1 128155 -142802 -9207.83 -5771.12 
200 1 34.9892 47.2665 14.6391 6.9343 -350969 -807857 -537389 98294.9 149291 -247729 
201 1 35.1031 48.7975 16.9422 7.25542 -161691 40002.1 -181651 227710 61320.9 -145460 
204 1 37.8924 47.3379 14.7223 8.07148 728822 193919 511474 -227449 -157924 -295652 
205 1 37.9469 48.8477 17.0092 7.30255 -281903 -242229 -655997 -129085 -90880 -237988 
225 1 39.3076 49.7817 14.5259 8.00313 372190 -57630.8 81146.5 -79158.5 -194106 -15084.2 
209 1 40.816 48.9964 16.7859 7.56832 -381211 -520782 4472.79 -65888.9 34546.2 -76396.6 
226 1 42.2949 49.7761 14.4153 7.18807 139780 -400070 -406421 -213908 -31295.7 -75843.4 
208 1 40.9282 47.3204 14.485 7.71648 341251 -271613 -99080.7 -106268 -66004.2 -165957 
213 1 43.6984 49.0186 16.7439 6.8502 52006.1 -337258 -180854 -28897.1 58081.9 27729.9 
212 1 43.8813 47.3395 14.3963 7.50372 -265599 -429283 -229514 -88123.2 -132906 -179142 
217 1 46.7388 49.0007 16.7287 7.31188 -104771 -499123 -309298 -218053 -35619.8 -197905 
227 1 45.2404 49.8082 14.3668 7.55595 -298476 -317548 -81822.3 51595.7 -129540 -41297.7 
216 1 46.7309 47.4809 14.4232 6.86246 -291518 -419334 -357893 138319 -102793 -206593 
221 1 49.529 49.0165 16.8354 7.25743 -484056 -565267 -376084 101524 351423 -66020.3 
220 1 49.5972 47.4776 14.4304 7.62016 -177089 72871.5 -128054 91323.7 -3869.03 -154442 
228 1 48.0658 49.9732 14.3369 7.16591 -473280 -750190 -75442.2 -232860 25837.4 12019.9 
239 1 42.874 34.9493 19.3179 20.4763 465920 96860.8 702603 -88939.7 -57937.1 183459 
230 1 44.5812 32.9139 19.3582 45.8535 517883 -887815 409178 -250320 150814 -190167 
243 1 45.7568 35.1355 19.2232 5.6298 -648526 -2.24033e+06 -875154 -336363 127241 180980 
232 1 47.2812 32.6178 19.138 38.4933 1.07821e+06 94006.9 451584 -166007 28748.1 -12531.5 
3049 1 49.9375 32.6506 19.0167 41.513 682646 -338677 565671 -29662.5 -47841 94214.8 
247 1 48.6078 34.965 19.2227 6.29628 -226681 -953102 -358763 129960 -8577.34 -130155 
234 1 38.3787 37.5369 19.4384 29.1026 567772 -334377 777045 -428805 -125464 26312.9 
236 1 41.229 37.2966 19.2934 8.79104 893024 352646 476577 51085.7 -51421 -81150.9 
240 1 44.1389 37.3862 19.142 7.5841 -161177 -517078 -447371 298440 -30992.5 248695 
244 1 47.0897 37.5893 19.1972 6.6673 109073 -601952 -17024.2 -194833 57644.5 89211.6 
248 1 49.9712 37.482 19.1756 6.02405 21520.7 -23388.8 -28794.3 -275450 109551 -122441 
253 1 36.8488 39.8291 19.2656 25.2775 507197 624325 954607 -368446 1732.43 -53989.7 
257 1 39.6922 39.7842 19.3135 7.27937 -243706 -701163 -368227 -437660 39864.2 18692.4 
261 1 42.6326 39.8867 19.2862 7.43104 361422 137883 -69472.1 173056 223210 -77199.8 
265 1 45.557 39.9464 19.2339 7.46731 503860 69483.8 386521 65958.6 4620.47 -148124 
269 1 48.4983 40.0137 19.2628 7.06247 -112680 -463011 259272 -394968 -106637 25592.1 
251 1 35.3829 42.2998 19.3489 25.7821 207503 954491 893699 -418534 -56433.3 80227.2 
254 1 38.0898 42.2436 19.2911 7.57797 -330787 -183296 29135.8 -119571 102976 -84229.4 
258 1 41.0485 42.2917 19.2524 8.07602 -37354.6 -317363 -42237.4 5468.92 185796 82.7965 
262 1 43.9173 42.4222 19.2153 7.35331 21618.2 -84946.4 -116397 -132721 -62375.9 -99691.1 
266 1 46.8233 42.4825 19.2303 7.68883 331967 -12996.1 419863 -180822 -46389.3 41527.9 
270 1 49.7178 42.446 19.1884 7.93252 206321 -363147 -32771.7 -322328 -62369.3 -42273.1 
275 1 33.9946 44.8952 19.3289 23.0362 -301497 414974 627605 -396007 -111580 -66290.4 
279 1 36.6482 44.7731 19.3908 7.2474 -1.03205e+06 -924629 -831020 22418.9 -24760.5 269954 
283 1 39.5776 44.7267 19.3081 7.46622 -303302 -49467.6 -253620 159961 -89044.5 39270.5 
287 1 42.4132 44.8404 19.2119 7.88904 -216401 -214201 -300124 148728 107381 -167909 
291 1 45.3318 44.9145 19.1112 8.07279 219707 74411 452110 -66867.6 -8047.61 -45186.5 
295 1 48.2035 44.9433 19.2081 7.74794 35284.2 -491155 -363712 -43670.1 73103.5 6832.64 
273 1 32.5954 47.3417 19.3708 30.0285 -398204 -2648.66 881248 -196263 -44321.7 -168051 
299 1 33.6457 49.7559 19.2177 10.2006 352929 -77075.2 541163 -56939.2 118906 248651 
276 1 35.2316 47.291 19.4298 7.34783 -1.32795e+06 -1.01861e+06 -487824 -144701 198273 -162821 
300 1 36.6306 49.7384 19.3679 7.85397 -327637 -511762 -176487 -90348.9 206053 -20191.8 
280 1 38.0805 47.2078 19.257 7.86701 -604883 -567526 -667309 -175956 114365 180024 
301 1 39.4007 49.7291 19.2096 7.47764 -461478 -278561 -625096 -105518 -1175.44 -71571.7 
284 1 41.0018 47.2841 19.2821 7.49077 -291059 -171903 -505911 81150.2 -88904.6 -277295 
302 1 42.3944 49.8141 19.0819 7.94267 282211 -184893 181074 11726 150700 -148829 
288 1 43.8602 47.4235 19.1501 7.87658 -136889 -90775.5 241857 -5138.16 -57362.4 45305.3 
292 1 46.7335 47.4066 19.1671 8.0034 -465776 -451749 -202935 88557.6 -70639.5 -106429 
303 1 45.2836 49.8325 19.091 7.4346 -93244 -132754 287624 -51239.7 -21244.9 39887.2 
296 1 49.5781 47.4054 19.2096 8.13481 -377139 -250632 -380870 -156029 117017 160364 
304 1 48.1538 49.8874 19.1194 7.98973 -291581 -152778 -321133 -66701.1 141871 50203.2 
315 1 43.025 34.984 23.9252 19.5346 295185 224331 624360 -425058 189643 -303789 
229 1 44.2192 34.1684 21.617 14.8541 -54231.2 127971 -176395 -257536 13694.2 -411724 
308 1 47.2404 32.567 23.9032 36.3102 497524 -373282 439343 -31132 3999.11 -60998.1 
306 1 44.6625 32.7605 23.965 37.8613 115580 -740420 865778 -445817 20876.5 121249 
319 1 45.7807 34.968 23.8606 6.11992 -1.45413e+06 -1.99897e+06 -529855 -582912 -223935 -46106.9 
231 1 46.9654 33.8608 21.5102 6.50083 795604 729300 662933 205797 100891 -77399.4 
233 1 49.7626 33.7618 21.5426 7.14396 946768 320424 362043 319178 6725.6 325643 
323 1 48.5411 34.9071 23.8418 5.91188 -589318 -843020 -57835.8 -303230 118126 50609.2 
3122 1 49.9081 32.4915 23.735 45.2649 933435 310815 431388 48060.6 -129052 318524 
238 1 39.6567 36.7097 21.661 30.0459 833991 353583 1.05402e+06 -365946 -134204 12196.9 
310 1 38.4968 37.5319 23.9914 30.2289 144342 30667.7 1.16036e+06 -345747 35287.4 1622.53 
242 1 42.6554 36.6651 21.626 8.4854 160523 -273962 315168 -42715.8 -94118.3 -45535 
312 1 41.1909 37.3114 23.9481 9.86117 236542 306803 330041 -72014.1 -13407.6 65018.1 
246 1 45.4946 36.6336 21.5617 6.66363 347255 47641.1 -30081.8 81831.9 -74411.3 -63751.6 
320 1 47.0172 37.498 23.9782 6.98892 64950.2 -764274 -197168 -212421 -54659.9 179114 
316 1 44.0933 37.4639 24.0115 7.71227 -250770 -811562 -575982 -277280 -8670.62 216666 
250 1 48.4348 36.4305 21.4978 6.45528 581618 770754 -105659 61605 -144951 -139645 
324 1 49.9172 37.3214 23.8533 7.24085 47513.1 168127 -76208.6 -137168 -44676.3 8424.42 
329 1 37.0522 39.9549 24.1351 22.1109 -94250.8 339441 675625 -522126 -47366.7 125793 
235 1 38.2065 39.1085 21.6243 10.5836 184991 209182 224158 -350846 88413.4 -168298 
333 1 39.7414 39.8545 23.9577 7.1302 -1.08778e+06 -875029 -244198 -273321 -75037 -64680.6 
237 1 41.1545 38.9257 21.6068 7.95665 -113765 -850358 -275394 216450 -16927.3 22073.8 
337 1 42.5774 39.8679 23.9888 8.32787 -124228 25041.2 -33373.6 62830.7 155913 63474.6 
241 1 44.0604 39.0371 21.659 8.01016 -50238.9 -735120 61764.1 -205827 -116748 116928 
245 1 47.0292 39.0817 21.6677 8.00431 106514 261867 -148581 -231733 -32686.5 -33802.7 
341 1 45.5319 39.895 23.9473 7.69373 -110491 -541975 -155410 -134034 -3360.99 -3480.76 
249 1 49.8448 39.0505 21.595 7.39468 -326667 546192 -55752.6 -130590 -44338.8 43413.1 
345 1 48.4252 39.9249 23.9629 7.80214 -451353 -558296 -869543 -213383 -297115 -172690 
256 1 36.7268 41.4897 21.6535 11.7738 408072 478634 1.03972e+06 -485571 -72987.6 114532 
252 1 35.2075 43.9603 21.6507 12.6158 210441 599957 773569 -325506 -11680.4 164011 
327 1 35.4431 42.434 24.0972 26.8793 378136 327303 893815 -662046 -41713 -26525.9 
260 1 39.6905 41.489 21.5915 7.99288 -224844 -366806 -580669 -161712 9523.82 -89669.4 
330 1 38.2122 42.3368 23.9425 7.38061 -919699 -1.45015e+06 -459464 -214262 -111454 228270 
264 1 42.5016 41.5068 21.6255 7.79658 -418529 -36381.3 -251794 10578.4 -66761.2 -104095 
259 1 41.0302 44.0093 21.5672 7.71921 -225396 -492465 -298832 -92271.6 -155353 153045 
334 1 41.0178 42.363 23.9295 7.73214 -353087 -319412 -105014 -236117 -68652.5 -185042 
268 1 45.355 41.48 21.5941 7.1853 255690 42478.2 -34578.8 -62810.1 -65823.4 -82516.8 
267 1 46.8653 44.1134 21.6358 7.90122 -56926.7 58505.7 -125389 -81890.4 171805 41220.1 
338 1 43.9263 42.3715 23.9259 8.1882 182188 205332 107019 -68211.9 -75192.6 40414.1 
342 1 46.8519 42.3711 23.8352 8.33181 -184595 -340408 -446155 -210632 96443 78003.1 
272 1 48.3336 41.6214 21.6365 7.85527 12579 -73584.9 -281857 -129873 182192 -185055 
271 1 49.6656 44.129 21.5073 7.72533 -689675 -244051 -221564 -123824 -222343 -143043 
346 1 49.7713 42.4619 23.9174 7.68808 -374992 -768442 -514647 -90586.8 42889.9 -135748 
278 1 33.7706 46.3626 21.7294 12.0753 258861 5685.2 210711 113943 193685 -64621 
351 1 33.9584 44.8994 24.1367 24.3283 -2158.68 291304 569925 -207825 -106949 11144.8 
282 1 36.7283 46.374 21.6613 7.32 251972 -133629 -541972 154887 -48508.4 -41674.5 
355 1 36.6827 44.7732 24.0186 7.64273 -1.3816e+06 -1.12759e+06 -992035 -72512.4 154639 113731 
255 1 38.089 43.8961 21.6781 7.42949 -71005.4 -636271 -880657 191418 -161242 181316 
286 1 39.5867 46.4607 21.6119 7.8604 -253809 -199641 -160196 13185.4 89951.2 106704 
359 1 39.4767 44.8214 23.9529 7.18156 -368497 -523638 -291590 -138990 -112195 -3757.55 
290 1 42.4556 46.4341 21.5515 7.40106 -112430 -125352 -66104 129416 -191443 -86601.7 
363 1 42.4456 44.8274 23.9657 7.72053 355399 238205 -6431.58 66628.4 -124373 103660 
263 1 43.9026 44.0153 21.5989 8.11897 363982 104030 165291 99901.8 -95083.3 -40639.4 
294 1 45.3159 46.5991 21.5741 8.00312 -103570 226018 -69573.1 40688.3 40876.3 -4920.48 
367 1 45.3773 44.9238 23.876 7.96071 275776 226870 90368.3 -18738.5 37420.9 18656.4 
298 1 48.1904 46.5741 21.5273 7.74398 -151344 -243298 -265707 -4070.09 242996 -169266 
371 1 48.283 44.8411 23.9637 7.77378 -601699 -70089.7 -109275 -2880.27 14251.8 -50712.2 
274 1 32.5627 48.7532 21.6249 22.2399 -121681 580781 783176 143031 -1335.71 -109665 
349 1 32.7405 47.3529 24.0367 29.3632 -628349 67029.5 684733 103569 89350.6 -74525.7 
390 1 49.905 37.3526 28.5622 7.89863 -441675 124387 161919 -60904.2 48381.6 -125562 
277 1 35.2083 48.9279 21.6775 8.07625 -247420 57129 -257860 -199358 60369.7 -276920 
352 1 35.3361 47.3071 24.0526 7.96082 -1.1512e+06 -459932 -133246 -149062 -52382.6 -29547 
377 1 39.5692 49.7881 23.9191 7.79098 69645.4 -232945 -129161 -171887 -78185.7 60658.2 
281 1 38.1686 48.981 21.6235 7.59129 -226934 -340022 -445590 -54165.9 -122542 188655 
379 1 45.4147 49.9642 23.7739 7.36818 -254105 -35036.2 -353146 -61033 -72996.9 -170488 
356 1 38.1774 47.326 24.0004 7.82947 -353894 -328168 -265873 -23132.1 4486.21 -28499.7 
285 1 41.0246 48.9331 21.5078 8.02276 177881 51121.1 30443.2 -10049 -54142.4 -173293 
360 1 41.0497 47.3512 23.9334 7.87436 -20381.8 211773 83316.3 87212.4 -12080.7 52657.1 
289 1 43.9476 49.1272 21.5679 7.57817 -454257 -289805 -417479 81027.4 136337 -43066.9 
293 1 46.7628 49.1129 21.468 7.76906 -381555 172823 -202297 41268.7 229127 -86152.2 
364 1 43.932 47.4518 23.8508 7.81656 -20275.7 35309.4 -281033 253080 150051 -83355 
368 1 46.796 47.3883 23.8366 7.8508 -487030 266366 -127745 -157002 121507 -134998 
297 1 49.6023 49.1445 21.4556 7.76152 -16449.3 397754 -31124.6 -140491 38167.6 -90542.2 
372 1 49.5525 47.4639 23.9486 7.33979 -9804.5 63247 147592 1633.15 -161857 -23823.2 
414 1 49.8282 47.3917 28.5971 7.67726 -218608 -204758 154765 -281064 -33111.6 -25909.6 
305 1 44.2825 34.0587 26.3427 14.0972 485424 481404 942540 -427454 2557.22 85687.6 
307 1 47.0399 33.9666 26.2011 8.646 648657 395309 791144 -19713.1 -108314 -86830.5 
309 1 49.8256 33.7936 26.1899 9.24963 1.04342e+06 772980 987793 206756 37934.4 300502 
314 1 39.7208 36.7992 26.3724 27.8903 885117 275323 1.34505e+06 -297271 -101497 -13340.6 
318 1 42.7091 36.5435 26.2314 10.0897 635106 713875 441017 -362007 136188 -27845.6 
322 1 45.5543 36.5171 26.2556 6.93008 -44454.6 153562 52563.3 -102047 76844.6 164719 
326 1 48.3842 36.4734 26.2342 6.70576 -156753 252185 -227114 12200 -156857 274433 
311 1 38.1985 39.0415 26.39 11.6251 241657 81920.7 436919 -243465 -114858 13066.4 
313 1 41.1953 39.0393 26.3062 8.13001 183974 -273083 -63254.7 -164072 192750 105965 
317 1 44.0881 39.0707 26.3588 8.04173 84063.4 214016 -255497 -83530.2 -28164.9 -173449 
321 1 46.9822 39.0064 26.3238 7.30222 43893.2 -12555.2 -496458 -127369 54036.1 -121651 
325 1 49.8584 39.0406 26.1476 8.008 -142776 431954 50268.6 -13569.4 -77165.5 162434 